   95   95    1    2
  0.1033276E+02  0.9202714E-09  0.1062638E-08  0.1003780E-08  0.5000000E-15
  1.000000000000000E-004
  CAR 
 V_Si_q0                                 
    380      1    320
 
  0.0000000E+00  0.0000000E+00  0.0000000E+00  0.1000000E+01
      1         -9.649157       -9.626102   1.000000   1.000000
      2         -8.519849       -8.494637   1.000000   1.000000
      3         -8.488922       -8.465443   1.000000   1.000000
      4         -8.364683       -8.337795   1.000000   1.000000
      5         -8.326320       -8.313391   1.000000   1.000000
      6         -8.129703       -8.116269   1.000000   1.000000
      7         -8.056920       -8.001090   1.000000   1.000000
      8         -7.267951       -7.252030   1.000000   1.000000
      9         -7.249060       -7.225486   1.000000   1.000000
     10         -7.237403       -7.215193   1.000000   1.000000
     11         -7.213862       -7.185713   1.000000   1.000000
     12         -7.079875       -7.071219   1.000000   1.000000
     13         -7.069524       -7.032935   1.000000   1.000000
     14         -7.047353       -7.007471   1.000000   1.000000
     15         -7.015088       -6.984683   1.000000   1.000000
     16         -6.897658       -6.892038   1.000000   1.000000
     17         -6.881408       -6.853540   1.000000   1.000000
     18         -6.872900       -6.809757   1.000000   1.000000
     19         -6.627809       -6.546288   1.000000   1.000000
     20         -5.975315       -5.971733   1.000000   1.000000
     21         -5.967678       -5.954328   1.000000   1.000000
     22         -5.944242       -5.935367   1.000000   1.000000
     23         -5.929192       -5.923955   1.000000   1.000000
     24         -5.919719       -5.897786   1.000000   1.000000
     25         -5.911931       -5.863184   1.000000   1.000000
     26         -5.902116       -5.838106   1.000000   1.000000
     27         -5.866145       -5.791259   1.000000   1.000000
     28         -5.799998       -5.717594   1.000000   1.000000
     29         -5.572847       -5.490496   1.000000   1.000000
     30         -5.271130       -5.187580   1.000000   1.000000
     31         -5.054624       -5.026115   1.000000   1.000000
     32         -4.869137       -4.852634   1.000000   1.000000
     33         -4.813460       -4.800208   1.000000   1.000000
     34         -4.772686       -4.731753   1.000000   1.000000
     35         -4.742854       -4.698283   1.000000   1.000000
     36         -4.650565       -4.647785   1.000000   1.000000
     37         -4.612532       -4.599839   1.000000   1.000000
     38         -4.603459       -4.576965   1.000000   1.000000
     39         -4.589283       -4.554124   1.000000   1.000000
     40         -4.566432       -4.479709   1.000000   1.000000
     41         -4.463093       -4.405647   1.000000   1.000000
     42         -4.439114       -4.348322   1.000000   1.000000
     43         -4.362495       -4.235735   1.000000   1.000000
     44         -4.273546       -4.151647   1.000000   1.000000
     45         -4.135846       -4.130530   1.000000   1.000000
     46         -4.123768       -3.980651   1.000000   1.000000
     47         -4.092609       -3.852817   1.000000   1.000000
     48         -3.973032       -3.769653   1.000000   1.000000
     49         -1.959761       -1.937658   1.000000   1.000000
     50         -1.898512       -1.880897   1.000000   1.000000
     51         -1.482910       -1.458127   1.000000   1.000000
     52         -1.005738       -0.987580   1.000000   1.000000
     53         -0.945501       -0.942640   1.000000   1.000000
     54         -0.939799       -0.923446   1.000000   1.000000
     55         -0.915695       -0.900327   1.000000   1.000000
     56         -0.835185       -0.824836   1.000000   1.000000
     57         -0.829553       -0.806609   1.000000   1.000000
     58         -0.777353       -0.749776   1.000000   1.000000
     59         -0.755708       -0.742704   1.000000   1.000000
     60         -0.708208       -0.699285   1.000000   1.000000
     61         -0.567095       -0.541213   1.000000   1.000000
     62         -0.566939       -0.536084   1.000000   1.000000
     63         -0.505787       -0.498348   1.000000   1.000000
     64         -0.502603       -0.494809   1.000000   1.000000
     65         -0.401938       -0.373288   1.000000   1.000000
     66         -0.382188       -0.367194   1.000000   1.000000
     67         -0.326103       -0.296387   1.000000   1.000000
     68         -0.290171       -0.273802   1.000000   1.000000
     69         -0.257663       -0.232794   1.000000   1.000000
     70         -0.059875       -0.005853   1.000000   1.000000
     71          0.024464        0.036922   1.000000   1.000000
     72          0.051505        0.076364   1.000000   1.000000
     73          0.111617        0.133202   1.000000   1.000000
     74          0.185218        0.215960   1.000000   1.000000
     75          0.662740        0.677769   1.000000   1.000000
     76          0.686856        0.695865   1.000000   1.000000
     77          0.692474        0.708049   1.000000   1.000000
     78          0.697046        0.726310   1.000000   1.000000
     79          0.836000        0.863071   1.000000   1.000000
     80          0.855174        0.877721   1.000000   1.000000
     81          1.143616        1.220771   1.000000   1.000000
     82          1.210789        1.232884   1.000000   1.000000
     83          1.251422        1.277883   1.000000   1.000000
     84          1.318329        1.335278   1.000000   1.000000
     85          1.336146        1.386574   1.000000   1.000000
     86          1.504864        1.548324   1.000000   1.000000
     87          1.533432        1.560811   1.000000   1.000000
     88          1.663198        1.701242   1.000000   1.000000
     89          1.685676        1.716102   1.000000   1.000000
     90          1.746050        1.771462   1.000000   1.000000
     91          1.768215        1.795865   1.000000   1.000000
     92          1.777434        1.798069   1.000000   1.000000
     93          1.826339        1.868739   1.000000   1.000000
     94          1.854294        1.881522   1.000000   1.000000
     95          1.883972        1.925578   1.000000   1.000000
     96          2.045926        2.077992   1.000000   1.000000
     97          2.115650        2.141886   1.000000   1.000000
     98          2.141211        2.174480   1.000000   1.000000
     99          2.177055        2.235556   1.000000   1.000000
    100          2.347447        2.401531   1.000000   1.000000
    101          2.478077        2.512767   1.000000   1.000000
    102          2.569362        2.606616   1.000000   1.000000
    103          2.659019        2.696616   1.000000   1.000000
    104          2.688912        2.698421   1.000000   1.000000
    105          2.733646        2.772030   1.000000   1.000000
    106          2.755554        2.800885   1.000000   1.000000
    107          2.783770        2.834482   1.000000   1.000000
    108          3.009352        3.045382   1.000000   1.000000
    109          3.101573        3.136450   1.000000   1.000000
    110          3.150436        3.176868   1.000000   1.000000
    111          3.179776        3.213677   1.000000   1.000000
    112          3.183557        3.221772   1.000000   1.000000
    113          3.394161        3.509605   1.000000   1.000000
    114          3.553724        3.564493   1.000000   1.000000
    115          3.611417        3.620787   1.000000   1.000000
    116          3.654029        3.673626   1.000000   1.000000
    117          3.703933        3.758116   1.000000   1.000000
    118          3.770519        3.790090   1.000000   1.000000
    119          3.773958        3.824565   1.000000   1.000000
    120          3.815585        3.835233   1.000000   1.000000
    121          3.854942        3.882160   1.000000   1.000000
    122          3.862567        3.898007   1.000000   1.000000
    123          3.871115        3.899500   1.000000   1.000000
    124          3.875421        3.901486   1.000000   1.000000
    125          4.035276        4.064077   1.000000   1.000000
    126          4.081968        4.125780   1.000000   1.000000
    127          4.195897        4.207025   1.000000   1.000000
    128          4.247384        4.261521   1.000000   1.000000
    129          4.266308        4.290875   1.000000   1.000000
    130          4.340990        4.355411   1.000000   1.000000
    131          4.350586        4.363814   1.000000   1.000000
    132          4.361618        4.369853   1.000000   1.000000
    133          4.370884        4.403375   1.000000   1.000000
    134          4.388077        4.410021   1.000000   1.000000
    135          4.396023        4.424776   1.000000   1.000000
    136          4.410089        4.441395   1.000000   1.000000
    137          4.455829        4.484384   1.000000   1.000000
    138          4.493391        4.515253   1.000000   1.000000
    139          4.564758        4.637439   1.000000   1.000000
    140          4.616195        4.639858   1.000000   1.000000
    141          4.645954        4.667509   1.000000   1.000000
    142          4.660740        4.691402   1.000000   1.000000
    143          4.697811        4.726862   1.000000   1.000000
    144          4.727972        4.746910   1.000000   1.000000
    145          4.732121        4.764974   1.000000   1.000000
    146          4.734323        4.803974   1.000000   1.000000
    147          4.792254        4.823449   1.000000   1.000000
    148          4.822816        4.841273   1.000000   1.000000
    149          4.898856        4.973851   1.000000   1.000000
    150          4.965631        5.035840   1.000000   1.000000
    151          5.006275        5.042496   1.000000   1.000000
    152          5.031608        5.083156   1.000000   1.000000
    153          5.058995        5.091119   1.000000   1.000000
    154          5.117313        5.139042   1.000000   1.000000
    155          5.152969        5.188204   1.000000   1.000000
    156          5.228419        5.244887   1.000000   1.000000
    157          5.259710        5.343283   1.000000   1.000000
    158          5.288224        5.481373   1.000000   1.000000
    159          5.549981        5.598768   1.000000   1.000000
    160          5.578576        5.602882   1.000000   1.000000
    161          5.592089        5.633083   1.000000   1.000000
    162          5.618479        5.656552   1.000000   1.000000
    163          5.642612        5.671890   1.000000   1.000000
    164          5.654235        5.695912   1.000000   1.000000
    165          5.741556        5.762903   1.000000   1.000000
    166          5.750491        5.769746   1.000000   1.000000
    167          5.774267        5.792389   1.000000   1.000000
    168          5.789579        5.822199   1.000000   1.000000
    169          5.827883        5.861802   1.000000   1.000000
    170          5.881973        5.941331   1.000000   1.000000
    171          5.934963        5.952801   1.000000   1.000000
    172          5.952504        5.995103   1.000000   1.000000
    173          6.061157        6.084212   1.000000   1.000000
    174          6.076091        6.142967   1.000000   1.000000
    175          6.136429        6.183434   1.000000   1.000000
    176          6.153559        6.292591   1.000000   1.000000
    177          6.284992        6.365523   1.000000   1.000000
    178          6.352136        6.497165   1.000000   1.000000
    179          6.473300        6.502144   1.000000   1.000000
    180          6.492783        6.539746   1.000000   1.000000
    181          6.585999        6.634285   1.000000   1.000000
    182          6.630104        6.713424   1.000000   1.000000
    183          6.681932        6.826937   1.000000   1.000000
    184          6.797437        6.834529   1.000000   1.000000
    185          6.808394        6.851263   1.000000   1.000000
    186          6.839774        6.904647   1.000000   1.000000
    187          6.962239        7.360303   1.000000   1.000000
    188          7.161848        7.393974   1.000000   1.000000
    189          7.366038        7.427610   1.000000   1.000000
    190          7.514408        9.126882   1.000000   0.000000
    191          7.614876        9.984650   1.000000   0.000000
    192          9.573980       10.110950   0.000000   0.000000
    193         10.756240       10.782908   0.000000   0.000000
    194         11.009736       11.023195   0.000000   0.000000
    195         11.613517       11.618014   0.000000   0.000000
    196         11.623089       11.685064   0.000000   0.000000
    197         11.687951       11.751996   0.000000   0.000000
    198         11.751227       11.766129   0.000000   0.000000
    199         11.887551       11.922493   0.000000   0.000000
    200         11.917216       11.936083   0.000000   0.000000
    201         12.063209       12.078028   0.000000   0.000000
    202         12.075024       12.100490   0.000000   0.000000
    203         12.430376       12.438768   0.000000   0.000000
    204         12.529245       12.539319   0.000000   0.000000
    205         12.544746       12.552468   0.000000   0.000000
    206         12.598044       12.620361   0.000000   0.000000
    207         12.619176       12.641568   0.000000   0.000000
    208         12.657007       12.766189   0.000000   0.000000
    209         12.912500       12.930563   0.000000   0.000000
    210         12.975212       13.017872   0.000000   0.000000
    211         13.110927       13.124743   0.000000   0.000000
    212         13.364536       13.402924   0.000000   0.000000
    213         13.434904       13.442442   0.000000   0.000000
    214         13.514036       13.540210   0.000000   0.000000
    215         13.542066       13.561546   0.000000   0.000000
    216         13.555849       13.569221   0.000000   0.000000
    217         13.574181       13.580551   0.000000   0.000000
    218         13.619525       13.632396   0.000000   0.000000
    219         13.717185       13.733600   0.000000   0.000000
    220         13.771074       13.780061   0.000000   0.000000
    221         13.837126       13.871264   0.000000   0.000000
    222         13.913373       13.926833   0.000000   0.000000
    223         13.935878       13.959272   0.000000   0.000000
    224         13.972619       13.980933   0.000000   0.000000
    225         13.995415       14.027384   0.000000   0.000000
    226         14.070145       14.088573   0.000000   0.000000
    227         14.085417       14.107084   0.000000   0.000000
    228         14.137687       14.143505   0.000000   0.000000
    229         14.153394       14.177858   0.000000   0.000000
    230         14.174962       14.224647   0.000000   0.000000
    231         14.235613       14.270344   0.000000   0.000000
    232         14.298777       14.315170   0.000000   0.000000
    233         14.343188       14.348971   0.000000   0.000000
    234         14.417631       14.426632   0.000000   0.000000
    235         14.431116       14.448836   0.000000   0.000000
    236         14.456949       14.464856   0.000000   0.000000
    237         14.526914       14.542717   0.000000   0.000000
    238         14.612841       14.622299   0.000000   0.000000
    239         14.621833       14.666844   0.000000   0.000000
    240         14.659854       14.675653   0.000000   0.000000
    241         14.738398       14.784208   0.000000   0.000000
    242         14.908550       14.936309   0.000000   0.000000
    243         15.019048       15.062728   0.000000   0.000000
    244         15.130993       15.190350   0.000000   0.000000
    245         15.183927       15.199616   0.000000   0.000000
    246         15.193426       15.250995   0.000000   0.000000
    247         15.283367       15.299544   0.000000   0.000000
    248         15.333973       15.373148   0.000000   0.000000
    249         15.492593       15.514682   0.000000   0.000000
    250         15.505156       15.518359   0.000000   0.000000
    251         15.618625       15.639363   0.000000   0.000000
    252         15.649237       15.690222   0.000000   0.000000
    253         15.691430       15.703789   0.000000   0.000000
    254         15.820735       15.823588   0.000000   0.000000
    255         15.838615       15.843895   0.000000   0.000000
    256         15.875327       15.924115   0.000000   0.000000
    257         15.955692       15.963583   0.000000   0.000000
    258         16.071340       16.076067   0.000000   0.000000
    259         16.118006       16.145325   0.000000   0.000000
    260         16.142340       16.157166   0.000000   0.000000
    261         16.154667       16.170168   0.000000   0.000000
    262         16.224411       16.232333   0.000000   0.000000
    263         16.283570       16.303929   0.000000   0.000000
    264         16.295622       16.318060   0.000000   0.000000
    265         16.301695       16.327171   0.000000   0.000000
    266         16.307387       16.349765   0.000000   0.000000
    267         16.398321       16.422122   0.000000   0.000000
    268         16.517285       16.540636   0.000000   0.000000
    269         16.608420       16.611855   0.000000   0.000000
    270         16.681725       16.704184   0.000000   0.000000
    271         16.707072       16.722265   0.000000   0.000000
    272         16.713822       16.732995   0.000000   0.000000
    273         16.721188       16.734838   0.000000   0.000000
    274         16.726234       16.756250   0.000000   0.000000
    275         16.753933       16.773106   0.000000   0.000000
    276         16.820547       16.833913   0.000000   0.000000
    277         16.872769       16.918138   0.000000   0.000000
    278         16.931664       16.940574   0.000000   0.000000
    279         16.976113       17.003023   0.000000   0.000000
    280         17.004534       17.010915   0.000000   0.000000
    281         17.040009       17.063379   0.000000   0.000000
    282         17.072734       17.084309   0.000000   0.000000
    283         17.076464       17.096329   0.000000   0.000000
    284         17.080698       17.099984   0.000000   0.000000
    285         17.153024       17.191406   0.000000   0.000000
    286         17.226116       17.257062   0.000000   0.000000
    287         17.390129       17.410452   0.000000   0.000000
    288         17.452413       17.457485   0.000000   0.000000
    289         17.475893       17.511954   0.000000   0.000000
    290         17.538774       17.582549   0.000000   0.000000
    291         17.562634       17.585340   0.000000   0.000000
    292         17.653602       17.679187   0.000000   0.000000
    293         17.715965       17.724976   0.000000   0.000000
    294         17.724187       17.749856   0.000000   0.000000
    295         17.788528       17.806637   0.000000   0.000000
    296         17.852062       17.873514   0.000000   0.000000
    297         17.888995       17.903064   0.000000   0.000000
    298         17.892008       17.914143   0.000000   0.000000
    299         17.910679       17.928265   0.000000   0.000000
    300         17.920680       17.942223   0.000000   0.000000
    301         17.971043       17.994041   0.000000   0.000000
    302         17.994320       18.006951   0.000000   0.000000
    303         17.997246       18.028556   0.000000   0.000000
    304         18.012606       18.054797   0.000000   0.000000
    305         18.064322       18.078536   0.000000   0.000000
    306         18.078648       18.089063   0.000000   0.000000
    307         18.103684       18.139624   0.000000   0.000000
    308         18.125518       18.166595   0.000000   0.000000
    309         18.178891       18.187035   0.000000   0.000000
    310         18.182817       18.204127   0.000000   0.000000
    311         18.207447       18.294216   0.000000   0.000000
    312         18.270770       18.336061   0.000000   0.000000
    313         18.377544       18.434500   0.000000   0.000000
    314         18.587829       18.594344   0.000000   0.000000
    315         18.592379       18.623592   0.000000   0.000000
    316         18.629364       18.669059   0.000000   0.000000
    317         18.663327       18.689293   0.000000   0.000000
    318         18.676353       18.710696   0.000000   0.000000
    319         18.684272       18.723224   0.000000   0.000000
    320         18.707181       18.741056   0.000000   0.000000
