 vasp.6.3.0 20Jan22 (build Apr 12 2022 14:45:20) complex                        
  
 executed on             LinuxIFC date 2023.01.23  22:57:49
 running on   40 total cores
 distrk:  each k-point on   40 cores,    1 groups
 distr:  one band on NCORE=   1 cores,   40 groups


--------------------------------------------------------------------------------------------------------


 INCAR:
   SYSTEM = V_Si_q0
   ISTART = 1
   ISPIN = 2
   ICHARG = 2
   ENCUT = 400
   ISIF = 2
   ISMEAR = 0
   SIGMA = 0.05
   EDIFF = 1E-05
   NSW = 0
   IBRION = 2
   EDIFFG = -1E-02
   LVTOT = .TRUE.
   LORBIT = 11
   NELECT = 380
   LHFCALC = .TRUE.
   AEXX = 0.25
   HFSCREEN = 0.2

 POTCAR:   PAW_PBE Si 05Jan2001                   
 POTCAR:   PAW_PBE C 08Apr2002                    
 -----------------------------------------------------------------------------
|                                                                             |
|           W    W    AA    RRRRR   N    N  II  N    N   GGGG   !!!           |
|           W    W   A  A   R    R  NN   N  II  NN   N  G    G  !!!           |
|           W    W  A    A  R    R  N N  N  II  N N  N  G       !!!           |
|           W WW W  AAAAAA  RRRRR   N  N N  II  N  N N  G  GGG   !            |
|           WW  WW  A    A  R   R   N   NN  II  N   NN  G    G                |
|           W    W  A    A  R    R  N    N  II  N    N   GGGG   !!!           |
|                                                                             |
|     You use a magnetic or noncollinear calculation, but did not specify     |
|     the initial magnetic moment with the MAGMOM tag. Note that a            |
|     default of 1 will be used for all atoms. This ferromagnetic setup       |
|     may break the symmetry of the crystal, in particular it may rule        |
|     out finding an antiferromagnetic solution. Thence, we recommend         |
|     setting the initial magnetic moment manually or verifying carefully     |
|     that this magnetic setup is desired.                                    |
|                                                                             |
 -----------------------------------------------------------------------------

 WARNING: For LVTOT=.TRUE., VASP.5.x writes the TOTAL local potential to the
     file LOCPOT. If you want only the Hartree contributions, use LVHAR=.TRUE.
     instead. 

 -----------------------------------------------------------------------------
|                                                                             |
|           W    W    AA    RRRRR   N    N  II  N    N   GGGG   !!!           |
|           W    W   A  A   R    R  NN   N  II  NN   N  G    G  !!!           |
|           W    W  A    A  R    R  N N  N  II  N N  N  G       !!!           |
|           W WW W  AAAAAA  RRRRR   N  N N  II  N  N N  G  GGG   !            |
|           WW  WW  A    A  R   R   N   NN  II  N   NN  G    G                |
|           W    W  A    A  R    R  N    N  II  N    N   GGGG   !!!           |
|                                                                             |
|     For optimal performance we recommend to set                             |
|       NCORE = 2 up to number-of-cores-per-socket                            |
|     NCORE specifies how many cores store one orbital (NPAR=cpu/NCORE).      |
|     This setting can greatly improve the performance of VASP for DFT.       |
|     The default, NCORE=1 might be grossly inefficient on modern             |
|     multi-core architectures or massively parallel machines. Do your        |
|     own testing! More info at https://www.vasp.at/wiki/index.php/NCORE      |
|     Unfortunately you need to use the default for GW and RPA                |
|     calculations (for HF NCORE is supported but not extensively tested      |
|     yet).                                                                   |
|                                                                             |
 -----------------------------------------------------------------------------

 POTCAR:   PAW_PBE Si 05Jan2001                   
   VRHFIN =Si: s2p2                                                                                 
   LEXCH  = PE                                                                                      
   EATOM  =   103.0669 eV,    7.5752 Ry                                                             
                                                                                                    
   TITEL  = PAW_PBE Si 05Jan2001                                                                    
   LULTRA =        F    use ultrasoft PP ?                                                          
   IUNSCR =        1    unscreen: 0-lin 1-nonlin 2-no                                               
   RPACOR =    1.500    partial core radius                                                         
   POMASS =   28.085; ZVAL   =    4.000    mass and valenz                                          
   RCORE  =    1.900    outmost cutoff radius                                                       
   RWIGS  =    2.480; RWIGS  =    1.312    wigner-seitz radius (au A)                               
   ENMAX  =  245.345; ENMIN  =  184.009 eV                                                          
   ICORE  =        2    local potential                                                             
   LCOR   =        T    correct aug charges                                                         
   LPAW   =        T    paw PP                                                                      
   EAUG   =  322.069                                                                                
   DEXC   =    -.007                                                                                
   RMAX   =    2.944    core radius for proj-oper                                                   
   RAUG   =    1.300    factor for augmentation sphere                                              
   RDEP   =    1.993    radius for radial grids                                                     
   QCUT   =   -4.246; QGAM   =    8.493    optimization parameters                                  
                                                                                                    
   Description                                                                                      
     l     E      TYP  RCUT    TYP  RCUT                                                            
     0   .000     23  1.900                                                                         
     0   .000     23  1.900                                                                         
     1   .000     23  1.900                                                                         
     1   .000     23  1.900                                                                         
     2   .000      7  1.900                                                                         
  local pseudopotential read in
  partial core-charges read in
  atomic valenz-charges read in
  non local Contribution for L=           0  read in
    real space projection operators read in
  non local Contribution for L=           0  read in
    real space projection operators read in
  non local Contribution for L=           1  read in
    real space projection operators read in
  non local Contribution for L=           1  read in
    real space projection operators read in
    PAW grid and wavefunctions read in
 
   number of l-projection  operators is LMAX  =           4
   number of lm-projection operators is LMMAX =           8
 
 POTCAR:   PAW_PBE C 08Apr2002                    
   VRHFIN =C: s2p2                                                                                  
   LEXCH  = PE                                                                                      
   EATOM  =   147.1560 eV,   10.8157 Ry                                                             
                                                                                                    
   TITEL  = PAW_PBE C 08Apr2002                                                                     
   LULTRA =        F    use ultrasoft PP ?                                                          
   IUNSCR =        0    unscreen: 0-lin 1-nonlin 2-no                                               
   RPACOR =     .000    partial core radius                                                         
   POMASS =   12.011; ZVAL   =    4.000    mass and valenz                                          
   RCORE  =    1.500    outmost cutoff radius                                                       
   RWIGS  =    1.630; RWIGS  =     .863    wigner-seitz radius (au A)                               
   ENMAX  =  400.000; ENMIN  =  300.000 eV                                                          
   ICORE  =        2    local potential                                                             
   LCOR   =        T    correct aug charges                                                         
   LPAW   =        T    paw PP                                                                      
   EAUG   =  644.873                                                                                
   DEXC   =     .000                                                                                
   RMAX   =    2.266    core radius for proj-oper                                                   
   RAUG   =    1.300    factor for augmentation sphere                                              
   RDEP   =    1.501    radius for radial grids                                                     
   RDEPT  =    1.300    core radius for aug-charge                                                  
   QCUT   =   -5.516; QGAM   =   11.032    optimization parameters                                  
                                                                                                    
   Description                                                                                      
     l     E      TYP  RCUT    TYP  RCUT                                                            
     0   .000     23  1.200                                                                         
     0   .000     23  1.200                                                                         
     1   .000     23  1.500                                                                         
     1  2.500     23  1.500                                                                         
     2   .000      7  1.500                                                                         
  local pseudopotential read in
  atomic valenz-charges read in
  non local Contribution for L=           0  read in
    real space projection operators read in
  non local Contribution for L=           0  read in
    real space projection operators read in
  non local Contribution for L=           1  read in
    real space projection operators read in
  non local Contribution for L=           1  read in
    real space projection operators read in
    PAW grid and wavefunctions read in
 
   number of l-projection  operators is LMAX  =           4
   number of lm-projection operators is LMMAX =           8
 
 -----------------------------------------------------------------------------
|                                                                             |
|               ----> ADVICE to this user running VASP <----                  |
|                                                                             |
|     You have a (more or less) 'large supercell' and for larger cells it     |
|     might be more efficient to use real-space projection operators.         |
|     Therefore, try LREAL= Auto in the INCAR file.                           |
|     Mind: If you want to do very accurate calculations, keep the            |
|     reciprocal projection scheme (i.e. LREAL=.FALSE.).                      |
|                                                                             |
 -----------------------------------------------------------------------------

 PAW_PBE Si 05Jan2001                   :
 energy of atom  1       EATOM= -103.0669
 kinetic energy error for atom=    0.0012 (will be added to EATOM!!)
 PAW_PBE C 08Apr2002                    :
 energy of atom  2       EATOM= -147.1560
 kinetic energy error for atom=    0.0288 (will be added to EATOM!!)
 
 
 POSCAR: 4HSiC
  positions in direct lattice
  velocities in cartesian coordinates
 exchange correlation table for  LEXCH =        8
   RHO(1)=    0.500       N(1)  =     2000
   RHO(2)=  100.500       N(2)  =     4000
 


--------------------------------------------------------------------------------------------------------


 ion  position               nearest neighbor table
   1  0.166  0.083  0.437-  86 1.88  84 1.88  90 1.88  48 1.88   7 3.06   4 3.06  26 3.07  24 3.07
                            30 3.07   3 3.07   6 3.07  36 3.07   9 3.07   8 3.08  38 3.08  42 3.08
   2  0.168  0.586  0.436-  87 1.84  91 1.87  49 1.87  85 1.91   9 3.02  27 3.04  31 3.04   7 3.05
                            25 3.07  43 3.07   8 3.10   5 3.10   6 3.10  39 3.10  37 3.11
   3  0.500  0.083  0.438-  86 1.88  88 1.88  92 1.88  50 1.89   8 3.06  10 3.06  26 3.07  28 3.07
                            38 3.07  40 3.07   4 3.07   1 3.07   9 3.07  11 3.07  32 3.08  44 3.08
   4  0.834  0.083  0.437-  88 1.88  84 1.88  94 1.88  52 1.88   7 3.06   1 3.06  28 3.07  24 3.07
                            34 3.07   3 3.07   6 3.07  36 3.07  11 3.07  10 3.08  40 3.08  46 3.08
   5  0.832  0.586  0.436-  89 1.84  95 1.87  53 1.87  85 1.91  11 3.02  29 3.04  35 3.04   7 3.05
                            25 3.07  47 3.07  10 3.10   2 3.10   6 3.10  41 3.10  37 3.11
   6  0.000  0.334  0.437-  90 1.88  94 1.88  85 1.88  54 1.88  25 3.07  30 3.07  34 3.07   1 3.07
                             4 3.07  42 3.07  46 3.07  37 3.08  10 3.08   8 3.08   2 3.10   5 3.10
   7  0.000  0.834  0.438-  91 1.87  95 1.87  84 1.88  55 1.89   2 3.05   5 3.05   1 3.06   4 3.06
                            11 3.06   9 3.06  24 3.07  36 3.07  31 3.07  35 3.07  43 3.08  47 3.08
   8  0.335  0.333  0.436-  87 1.84  92 1.87  56 1.88  90 1.90  10 3.04  27 3.04  32 3.06   3 3.06
                            30 3.07  44 3.08   1 3.08   6 3.08  42 3.09   2 3.10  39 3.10
   9  0.333  0.832  0.437-  93 1.84  91 1.87  57 1.88  86 1.90   2 3.02  33 3.04  31 3.06   7 3.06
                            26 3.07  43 3.07   3 3.07  11 3.07   1 3.07  38 3.08  45 3.08
  10  0.665  0.333  0.436-  89 1.84  92 1.87  58 1.88  94 1.90   8 3.04  29 3.04  32 3.06   3 3.06
                            34 3.07  44 3.08   4 3.08   6 3.08  46 3.09   5 3.10  41 3.10
  11  0.667  0.832  0.437-  93 1.84  95 1.87  59 1.88  88 1.90   5 3.02  33 3.04  35 3.06   7 3.06
                            28 3.07  47 3.07   3 3.07   9 3.07   4 3.07  40 3.08  45 3.08
  12  0.166  0.416  0.938-  75 1.88  78 1.88  73 1.88  60 1.89  16 3.06  18 3.06  20 3.07  30 3.07
                            25 3.07  19 3.07  14 3.07  21 3.07  42 3.08  37 3.08  39 3.08  27 3.08
  13  0.167  0.917  0.938-  79 1.88  74 1.88  72 1.88  61 1.89  20 3.07  18 3.07  15 3.07  19 3.07
                            31 3.07  17 3.07  43 3.07  21 3.07  24 3.07  36 3.07  38 3.07  26 3.07
  14  0.500  0.417  0.939-  80 1.88  75 1.88  77 1.88  62 1.89  32 3.06  21 3.07  23 3.07  39 3.07
                            41 3.07  20 3.07  22 3.07  16 3.07  12 3.07  44 3.08  27 3.08  29 3.08
  15  0.500  0.917  0.938-  81 1.88  74 1.88  76 1.88  63 1.88  20 3.06  22 3.06  17 3.07  13 3.07
                            26 3.07  28 3.07  21 3.07  23 3.07  38 3.08  40 3.08  45 3.08  33 3.09
  16  0.834  0.416  0.938-  77 1.88  82 1.88  73 1.88  64 1.89  12 3.06  18 3.06  22 3.07  34 3.07
                            25 3.07  19 3.07  14 3.07  23 3.07  46 3.08  37 3.08  41 3.08  29 3.08
  17  0.833  0.917  0.938-  83 1.88  76 1.88  72 1.88  65 1.89  22 3.07  18 3.07  15 3.07  19 3.07
                            35 3.07  13 3.07  47 3.07  23 3.07  24 3.07  36 3.07  40 3.07  28 3.07
  18  0.000  0.167  0.938-  78 1.88  82 1.88  72 1.88  66 1.89  12 3.06  16 3.06  13 3.07  17 3.07
                            22 3.07  20 3.07  36 3.07  24 3.07  30 3.07  34 3.07  42 3.07  46 3.07
  19  0.000  0.667  0.938-  79 1.88  83 1.88  73 1.88  67 1.89  13 3.07  17 3.07  37 3.07  23 3.07
                            21 3.07  12 3.07  16 3.07  31 3.07  35 3.07  43 3.07  47 3.07  25 3.07
  20  0.333  0.167  0.938-  74 1.88  80 1.88  78 1.88  68 1.89  15 3.06  13 3.07  12 3.07  18 3.07
                            22 3.07  14 3.07  32 3.07  44 3.07  38 3.07  30 3.07  42 3.07  26 3.07
  21  0.333  0.667  0.939-  79 1.88  81 1.88  75 1.88  69 1.89  31 3.06  39 3.06  23 3.07  14 3.07
                            19 3.07  13 3.07  45 3.07  15 3.07  12 3.07  43 3.08  27 3.08  33 3.09
  22  0.667  0.167  0.938-  76 1.88  80 1.88  82 1.88  70 1.89  15 3.06  17 3.07  16 3.07  18 3.07
                            20 3.07  14 3.07  32 3.07  44 3.07  40 3.07  34 3.07  46 3.07  28 3.07
  23  0.667  0.667  0.939-  83 1.88  81 1.88  77 1.88  71 1.89  35 3.06  41 3.06  21 3.07  14 3.07
                            19 3.07  17 3.07  45 3.07  15 3.07  16 3.07  47 3.08  29 3.08  33 3.09
  24  0.000  1.000  0.188-  48 1.88  52 1.88  55 1.88  72 1.88  31 3.06  35 3.06  30 3.06  34 3.06
                            28 3.07  26 3.07   1 3.07   4 3.07   7 3.07  13 3.07  17 3.07  18 3.07
  25  0.000  0.500  0.188-  49 1.87  53 1.87  54 1.88  73 1.88  29 3.06  27 3.06   6 3.07  12 3.07
                            16 3.07  31 3.07  35 3.07   2 3.07   5 3.07  30 3.07  34 3.07  19 3.07
  26  0.333  0.000  0.188-  57 1.87  48 1.88  50 1.88  74 1.88  31 3.06  30 3.06  33 3.06  32 3.07
                            24 3.07   1 3.07  15 3.07   3 3.07  28 3.07   9 3.07  13 3.07  20 3.07
  27  0.333  0.499  0.190-  51 1.83  56 1.87  49 1.87  75 1.90   2 3.04   8 3.04  25 3.06  30 3.06
                            32 3.07  31 3.07  29 3.08  33 3.08  14 3.08  12 3.08  21 3.08
  28  0.667  0.000  0.188-  59 1.87  52 1.88  50 1.88  76 1.88  35 3.06  34 3.06  33 3.06  32 3.07
                            24 3.07   4 3.07  15 3.07   3 3.07  26 3.07  11 3.07  17 3.07  22 3.07
  29  0.667  0.499  0.190-  51 1.83  58 1.87  53 1.87  77 1.90   5 3.04  10 3.04  25 3.06  34 3.06
                            32 3.07  35 3.07  27 3.08  33 3.08  14 3.08  16 3.08  23 3.08
  30  0.166  0.250  0.188-  56 1.87  48 1.87  54 1.88  78 1.88  27 3.06  34 3.06  24 3.06  26 3.06
                            12 3.07   8 3.07   6 3.07   1 3.07  32 3.07  18 3.07  25 3.07  20 3.07
  31  0.167  0.750  0.187-  57 1.87  49 1.88  55 1.88  79 1.88   2 3.04  21 3.06   9 3.06  26 3.06
                            24 3.06  35 3.07  33 3.07  13 3.07  25 3.07  19 3.07   7 3.07  27 3.07
  32  0.500  0.250  0.187-  56 1.88  58 1.88  50 1.88  80 1.88   8 3.06  10 3.06  14 3.06  26 3.07
                            28 3.07  27 3.07  29 3.07  34 3.07  30 3.07  20 3.07  22 3.07   3 3.08
  33  0.500  0.750  0.190-  51 1.84  57 1.87  59 1.87  81 1.90   9 3.04  11 3.04  26 3.06  28 3.06
                            35 3.07  31 3.07  27 3.08  29 3.08  21 3.09  23 3.09  15 3.09
  34  0.834  0.250  0.188-  58 1.87  52 1.87  54 1.88  82 1.88  29 3.06  30 3.06  24 3.06  28 3.06
                            16 3.07  10 3.07   6 3.07   4 3.07  32 3.07  18 3.07  25 3.07  22 3.07
  35  0.833  0.750  0.187-  59 1.87  53 1.88  55 1.88  83 1.88   5 3.04  23 3.06  11 3.06  28 3.06
                            24 3.06  31 3.07  33 3.07  17 3.07  25 3.07  19 3.07   7 3.07  29 3.07
  36  0.000  1.000  0.688-  66 1.88  61 1.88  65 1.88  84 1.88  43 3.07  47 3.07  42 3.07  46 3.07
                            40 3.07  38 3.07  18 3.07   7 3.07  13 3.07  17 3.07   1 3.07   4 3.07
  37  0.000  0.500  0.688-  67 1.87  60 1.88  64 1.88  85 1.88  43 3.07  47 3.07  19 3.07  42 3.07
                            46 3.07  12 3.08  16 3.08   6 3.08  41 3.08  39 3.08   2 3.11   5 3.11
  38  0.334  1.000  0.688-  63 1.88  61 1.88  68 1.88  86 1.88  40 3.06  43 3.07   3 3.07  36 3.07
                            44 3.07  13 3.07  42 3.07  20 3.07  45 3.07   1 3.08  15 3.08   9 3.08
  39  0.335  0.501  0.689-  87 1.85  69 1.87  62 1.87  60 1.90  45 3.04  41 3.05  43 3.06  21 3.06
                            14 3.07  44 3.07  37 3.08  12 3.08  42 3.08   8 3.10   2 3.10
  40  0.666  1.000  0.688-  63 1.88  65 1.88  70 1.88  88 1.88  38 3.06  47 3.07   3 3.07  36 3.07
                            44 3.07  17 3.07  46 3.07  22 3.07  45 3.07   4 3.08  15 3.08  11 3.08
  41  0.665  0.501  0.689-  89 1.85  71 1.87  62 1.87  64 1.90  45 3.04  39 3.05  47 3.06  23 3.06
                            14 3.07  44 3.07  37 3.08  16 3.08  46 3.08  10 3.10   5 3.10
  42  0.167  0.250  0.688-  60 1.88  68 1.88  66 1.88  90 1.88  46 3.07  44 3.07  36 3.07  37 3.07
                            38 3.07  18 3.07  20 3.07   6 3.07  12 3.08   1 3.08  39 3.08   8 3.09
  43  0.167  0.750  0.688-  61 1.88  69 1.88  67 1.88  91 1.88  39 3.06  38 3.07  37 3.07  45 3.07
                            36 3.07  13 3.07  19 3.07  47 3.07   9 3.07   2 3.07   7 3.08  21 3.08
  44  0.500  0.250  0.688-  68 1.88  70 1.88  62 1.88  92 1.88  46 3.07  42 3.07  38 3.07  40 3.07
                            20 3.07  22 3.07  39 3.07  41 3.07   8 3.08  10 3.08   3 3.08  14 3.08
  45  0.500  0.749  0.689-  93 1.84  69 1.87  71 1.87  63 1.89  39 3.04  41 3.04  47 3.07  43 3.07
                            21 3.07  23 3.07  38 3.07  40 3.07  15 3.08   9 3.08  11 3.08
  46  0.833  0.250  0.688-  64 1.88  70 1.88  66 1.88  94 1.88  42 3.07  44 3.07  36 3.07  37 3.07
                            40 3.07  18 3.07  22 3.07   6 3.07  16 3.08   4 3.08  41 3.08  10 3.09
  47  0.833  0.750  0.688-  65 1.88  71 1.88  67 1.88  95 1.88  41 3.06  40 3.07  37 3.07  45 3.07
                            36 3.07  17 3.07  19 3.07  43 3.07  11 3.07   5 3.07   7 3.08  23 3.08
  48  0.166  0.083  0.250-  30 1.87  24 1.88  26 1.88   1 1.88
  49  0.166  0.584  0.249-   2 1.87  25 1.87  27 1.87  31 1.88
  50  0.500  0.083  0.250-  32 1.88  26 1.88  28 1.88   3 1.89
  51  0.500  0.583  0.236-  27 1.83  29 1.83  33 1.84
  52  0.834  0.083  0.250-  34 1.87  24 1.88  28 1.88   4 1.88
  53  0.834  0.584  0.249-   5 1.87  25 1.87  29 1.87  35 1.88
  54  0.000  0.333  0.249-  25 1.88  30 1.88  34 1.88   6 1.88
  55  0.000  0.833  0.250-  24 1.88  31 1.88  35 1.88   7 1.89
  56  0.333  0.332  0.249-  27 1.87  30 1.87  32 1.88   8 1.88
  57  0.333  0.834  0.250-  33 1.87  26 1.87  31 1.87   9 1.88
  58  0.667  0.332  0.249-  29 1.87  34 1.87  32 1.88  10 1.88
  59  0.667  0.834  0.250-  33 1.87  28 1.87  35 1.87  11 1.88
  60  0.166  0.416  0.750-  42 1.88  37 1.88  12 1.89  39 1.90
  61  0.167  0.917  0.750-  43 1.88  36 1.88  38 1.88  13 1.89
  62  0.500  0.417  0.750-  39 1.87  41 1.87  44 1.88  14 1.89
  63  0.500  0.917  0.751-  38 1.88  40 1.88  15 1.88  45 1.89
  64  0.834  0.416  0.750-  46 1.88  37 1.88  16 1.89  41 1.90
  65  0.833  0.917  0.750-  47 1.88  36 1.88  40 1.88  17 1.89
  66  0.000  0.167  0.750-  36 1.88  42 1.88  46 1.88  18 1.89
  67  0.000  0.667  0.750-  37 1.87  43 1.88  47 1.88  19 1.89
  68  0.333  0.167  0.750-  44 1.88  42 1.88  38 1.88  20 1.89
  69  0.333  0.667  0.751-  39 1.87  45 1.87  43 1.88  21 1.89
  70  0.667  0.167  0.750-  44 1.88  46 1.88  40 1.88  22 1.89
  71  0.667  0.667  0.751-  41 1.87  45 1.87  47 1.88  23 1.89
  72  0.000  1.000  0.000-  18 1.88  13 1.88  17 1.88  24 1.88
  73  0.000  0.500  0.001-  12 1.88  16 1.88  19 1.88  25 1.88
  74  0.333  0.000  0.001-  20 1.88  13 1.88  15 1.88  26 1.88
  75  0.333  0.500  0.001-  12 1.88  14 1.88  21 1.88  27 1.90
  76  0.667  0.000  0.001-  22 1.88  17 1.88  15 1.88  28 1.88
  77  0.667  0.500  0.001-  16 1.88  14 1.88  23 1.88  29 1.90
  78  0.167  0.250  0.000-  12 1.88  18 1.88  20 1.88  30 1.88
  79  0.167  0.750  0.000-  13 1.88  31 1.88  19 1.88  21 1.88
  80  0.500  0.250  0.000-  14 1.88  20 1.88  22 1.88  32 1.88
  81  0.500  0.750  0.001-  15 1.88  21 1.88  23 1.88  33 1.90
  82  0.833  0.250  0.000-  16 1.88  18 1.88  22 1.88  34 1.88
  83  0.833  0.750  0.000-  17 1.88  35 1.88  19 1.88  23 1.88
  84  0.000  1.000  0.500-   7 1.88   1 1.88   4 1.88  36 1.88
  85  0.000  0.500  0.500-   6 1.88  37 1.88   2 1.91   5 1.91
  86  0.333  0.000  0.500-   1 1.88   3 1.88  38 1.88   9 1.90
  87  0.318  0.493  0.506-   2 1.84   8 1.84  39 1.85
  88  0.667  0.000  0.500-   4 1.88   3 1.88  40 1.88  11 1.90
  89  0.682  0.493  0.506-   5 1.84  10 1.84  41 1.85
  90  0.166  0.249  0.500-   1 1.88   6 1.88  42 1.88   8 1.90
  91  0.166  0.751  0.501-   2 1.87   9 1.87   7 1.87  43 1.88
  92  0.500  0.249  0.500-   8 1.87  10 1.87   3 1.88  44 1.88
  93  0.500  0.763  0.506-  45 1.84   9 1.84  11 1.84
  94  0.834  0.249  0.500-   4 1.88   6 1.88  46 1.88  10 1.90
  95  0.834  0.751  0.501-   5 1.87  11 1.87   7 1.87  47 1.88
 
  LATTYP: Found a simple orthorhombic cell.
 ALAT       =     9.2027139664
 B/A-ratio  =     1.0907433305
 C/A-ratio  =     1.1547006682
  
  Lattice vectors:
  
 A1 = (  -9.2027139664,   0.0000000000,   0.0000000000)
 A2 = (   0.0000000000,   0.0000000000,  10.0377988815)
 A3 = (   0.0000000000,  10.6263799667,   0.0000000000)


Analysis of symmetry for initial positions (statically):
=====================================================================
 Subroutine PRICEL returns:
 Original cell was already a primitive cell.
 

 Routine SETGRP: Setting up the symmetry group for a 
 simple orthorhombic supercell.


 Subroutine GETGRP returns: Found  2 space group operations
 (whereof  2 operations were pure point group operations)
 out of a pool of  8 trial point group operations.


The static configuration has the point symmetry C_1h.


Analysis of symmetry for dynamics (positions and initial velocities):
=====================================================================
 Subroutine PRICEL returns:
 Original cell was already a primitive cell.
 

 Routine SETGRP: Setting up the symmetry group for a 
 simple orthorhombic supercell.


 Subroutine GETGRP returns: Found  2 space group operations
 (whereof  2 operations were pure point group operations)
 out of a pool of  8 trial point group operations.


The dynamic configuration has the point symmetry C_1h.


Analysis of structural, dynamic, and magnetic symmetry:
=====================================================================
 Subroutine PRICEL returns:
 Original cell was already a primitive cell.
 

 Routine SETGRP: Setting up the symmetry group for a 
 simple orthorhombic supercell.


 Subroutine GETGRP returns: Found  2 space group operations
 (whereof  2 operations were pure point group operations)
 out of a pool of  8 trial point group operations.


The overall configuration has the point symmetry C_1h.


 Subroutine INISYM returns: Found  2 space group operations
 (whereof  2 operations are pure point group operations),
 and found     1 'primitive' translations


----------------------------------------------------------------------------------------

                                     Primitive cell                                     

  volume of cell :     981.6118

  direct lattice vectors                    reciprocal lattice vectors
     9.202713966  0.000000000  0.000000000     0.108663597  0.000000000  0.000000000
     0.000000000 10.626379967  0.000000000     0.000000000  0.094105425  0.000000000
     0.000000000  0.000000000 10.037798882     0.000000000  0.000000000  0.099623435

  length of vectors
     9.202713966 10.626379967 10.037798882     0.108663597  0.094105425  0.099623435

  position of ions in fractional coordinates (direct lattice)
     0.166366140  0.082939740  0.437397400
     0.168403753  0.586272813  0.435611066
     0.500000000  0.082586708  0.437662244
     0.833633845  0.082939740  0.437397400
     0.831596232  0.586272813  0.435611066
     0.000000000  0.333504027  0.437203966
     0.000000000  0.833715623  0.437572431
     0.334776473  0.332893861  0.436380760
     0.332953813  0.832110563  0.437100833
     0.665223557  0.332893861  0.436380760
     0.667046217  0.832110563  0.437100833
     0.166299578  0.416364651  0.938300198
     0.166699071  0.916724650  0.937631956
     0.500000000  0.416722190  0.938650289
     0.500000000  0.916965187  0.938480409
     0.833700407  0.416364651  0.938300198
     0.833300914  0.916724650  0.937631956
     0.000000000  0.166574059  0.937585613
     0.000000000  0.666735792  0.937705520
     0.333264612  0.166596524  0.937643822
     0.333454195  0.666613746  0.938850769
     0.666735418  0.166596524  0.937643822
     0.666545835  0.666613746  0.938850769
     0.000000000  0.999913516  0.187557460
     0.000000000  0.500190237  0.187835468
     0.333118674  0.000003739  0.187967148
     0.332834289  0.499402673  0.189769269
     0.666881356  0.000003739  0.187967148
     0.667165741  0.499402673  0.189769269
     0.166468772  0.249678102  0.187753896
     0.166663963  0.750304028  0.187364260
     0.500000000  0.249650772  0.187471160
     0.500000000  0.750409470  0.190422136
     0.833531213  0.249678102  0.187753896
     0.833336022  0.750304028  0.187364260
     0.000000000  0.999974749  0.687728902
     0.000000000  0.500367068  0.687868397
     0.333504087  0.999800066  0.687673664
     0.334543791  0.501079732  0.688816492
     0.666495943  0.999800066  0.687673664
     0.665456239  0.501079732  0.688816492
     0.166631651  0.250143370  0.687535595
     0.166853139  0.750036583  0.687984008
     0.500000000  0.250060116  0.687819483
     0.500000000  0.748984824  0.688581183
     0.833368334  0.250143370  0.687535595
     0.833146846  0.750036583  0.687984008
     0.166355312  0.083221989  0.249655807
     0.166195682  0.583769642  0.249130566
     0.500000000  0.083120886  0.249680681
     0.500000000  0.582686224  0.235978066
     0.833644673  0.083221989  0.249655807
     0.833804303  0.583769642  0.249130566
     0.000000000  0.333477124  0.249431063
     0.000000000  0.833411604  0.249627764
     0.333127019  0.332426122  0.249424163
     0.332707842  0.833650324  0.249788196
     0.666873011  0.332426122  0.249424163
     0.667292188  0.833650324  0.249788196
     0.165917073  0.416398250  0.750415995
     0.166669516  0.916735725  0.749691592
     0.500000000  0.416592949  0.750345084
     0.500000000  0.917146889  0.750826114
     0.834082912  0.416398250  0.750415995
     0.833330469  0.916735725  0.749691592
     0.000000000  0.166637763  0.749543255
     0.000000000  0.666855403  0.749702355
     0.333243304  0.166739232  0.749585755
     0.333167441  0.666867516  0.750854197
     0.666756726  0.166739232  0.749585755
     0.666832589  0.666867516  0.750854197
     0.000000000  0.999989279  0.000123224
     0.000000000  0.500147675  0.000544995
     0.333077506  0.000147958  0.000547217
     0.332710757  0.499563907  0.000567458
     0.666922524  0.000147958  0.000547217
     0.667289273  0.499563907  0.000567458
     0.166518960  0.249707168  0.000397786
     0.166502030  0.750179763  0.000253219
     0.500000000  0.249802369  0.000191345
     0.500000000  0.750409750  0.001072837
     0.833481025  0.249707168  0.000397786
     0.833497955  0.750179763  0.000253219
     0.000000000  0.999883928  0.500398842
     0.000000000  0.500100459  0.500303294
     0.332882208  0.000272981  0.500255151
     0.317961181  0.492876575  0.505767192
     0.667117822  0.000272981  0.500255151
     0.682038849  0.492876575  0.505767192
     0.166045508  0.249452004  0.500183175
     0.166156646  0.750749271  0.500539775
     0.500000000  0.249418673  0.500383950
     0.500000000  0.763179873  0.506199025
     0.833954477  0.249452004  0.500183175
     0.833843339  0.750749271  0.500539775

  ion indices of the primitive-cell ions
   primitive index   ion index
                 1           1
                 2           2
                 3           3
                 4           4
                 5           5
                 6           6
                 7           7
                 8           8
                 9           9
                10          10
                11          11
                12          12
                13          13
                14          14
                15          15
                16          16
                17          17
                18          18
                19          19
                20          20
                21          21
                22          22
                23          23
                24          24
                25          25
                26          26
                27          27
                28          28
                29          29
                30          30
                31          31
                32          32
                33          33
                34          34
                35          35
                36          36
                37          37
                38          38
                39          39
                40          40
                41          41
                42          42
                43          43
                44          44
                45          45
                46          46
                47          47
                48          48
                49          49
                50          50
                51          51
                52          52
                53          53
                54          54
                55          55
                56          56
                57          57
                58          58
                59          59
                60          60
                61          61
                62          62
                63          63
                64          64
                65          65
                66          66
                67          67
                68          68
                69          69
                70          70
                71          71
                72          72
                73          73
                74          74
                75          75
                76          76
                77          77
                78          78
                79          79
                80          80
                81          81
                82          82
                83          83
                84          84
                85          85
                86          86
                87          87
                88          88
                89          89
                90          90
                91          91
                92          92
                93          93
                94          94
                95          95

----------------------------------------------------------------------------------------

 
 
 KPOINTS: k-points                                

Automatic generation of k-mesh.
 Grid dimensions read from file:
 generate k-points for:    1    1    1

 Generating k-lattice:

  Cartesian coordinates                     Fractional coordinates (reciprocal lattice)
     0.108663597  0.000000000  0.000000000     1.000000000  0.000000000  0.000000000
     0.000000000  0.094105425  0.000000000     0.000000000  1.000000000  0.000000000
     0.000000000  0.000000000  0.099623435     0.000000000  0.000000000  1.000000000

  Length of vectors
     0.108663597  0.094105425  0.099623435

  Shift w.r.t. Gamma in fractional coordinates (k-lattice)
     0.000000000  0.000000000  0.000000000

 
 Subroutine IBZKPT returns following result:
 ===========================================
 
 Found      1 irreducible k-points:
 
 Following reciprocal coordinates:
            Coordinates               Weight
  0.000000  0.000000  0.000000      1.000000
 
 Following cartesian coordinates:
            Coordinates               Weight
  0.000000  0.000000  0.000000      1.000000
 
 
 Subroutine IBZKPT_HF returns following result:
 ==============================================
 
 Found      1 k-points in 1st BZ
 the following      1 k-points will be used (e.g. in the exchange kernel)
 Following reciprocal coordinates:   # in IRBZ
  0.000000  0.000000  0.000000    1.00000000   1 t-inv F


--------------------------------------------------------------------------------------------------------




 Dimension of arrays:
   k-points           NKPTS =      1   k-points in BZ     NKDIM =      1   number of bands    NBANDS=    320
   number of dos      NEDOS =    301   number of ions     NIONS =     95
   non local maximal  LDIM  =      4   non local SUM 2l+1 LMDIM =      8
   total plane-waves  NPLWV = 129600
   max r-space proj   IRMAX =      1   max aug-charges    IRDMAX=   4613
   dimension x,y,z NGX =    48 NGY =   54 NGZ =   50
   dimension x,y,z NGXF=    96 NGYF=  108 NGZF=  100
   support grid    NGXF=    96 NGYF=  108 NGZF=  100
   ions per type =              47  48
   NGX,Y,Z   is equivalent  to a cutoff of   8.67,  8.45,  8.28 a.u.
   NGXF,Y,Z  is equivalent  to a cutoff of  17.34, 16.90, 16.56 a.u.

 SYSTEM =  V_Si_q0                                 
 POSCAR =  4HSiC                                   

 Startparameter for this run:
   NWRITE =      2    write-flag & timer
   PREC   = normal    normal or accurate (medium, high low for compatibility)
   ISTART =      1    job   : 0-new  1-cont  2-samecut
   ICHARG =      2    charge: 1-file 2-atom 10-const
   ISPIN  =      2    spin polarized calculation?
   LNONCOLLINEAR =      F non collinear calculations
   LSORBIT =      F    spin-orbit coupling
   INIWAV =      1    electr: 0-lowe 1-rand  2-diag
   LASPH  =      F    aspherical Exc in radial PAW
 Electronic Relaxation 1
   ENCUT  =  400.0 eV  29.40 Ry    5.42 a.u.  15.01 17.33 16.37*2*pi/ulx,y,z
   ENINI  =  400.0     initial cutoff
   ENAUG  =  644.9 eV  augmentation charge cutoff
   NELM   =     60;   NELMIN=  2; NELMDL=  0     # of ELM steps 
   EDIFF  = 0.1E-04   stopping-criterion for ELM
   LREAL  =      F    real-space projection
   NLSPLINE    = F    spline interpolate recip. space projectors
   LCOMPAT=      F    compatible to vasp.4.4
   GGA_COMPAT  = T    GGA compatible to vasp.4.4-vasp.4.6
   LMAXPAW     = -100 max onsite density
   LMAXMIX     =    2 max onsite mixed and CHGCAR
   VOSKOWN=      0    Vosko Wilk Nusair interpolation
   ROPT   =    0.00000   0.00000
 Ionic relaxation
   EDIFFG = -.1E-01   stopping-criterion for IOM
   NSW    =      0    number of steps for IOM
   NBLOCK =      1;   KBLOCK =      1    inner block; outer block 
   IBRION =     -1    ionic relax: 0-MD 1-quasi-New 2-CG
   NFREE  =      1    steps in history (QN), initial steepest desc. (CG)
   ISIF   =      2    stress and relaxation
   IWAVPR =     10    prediction:  0-non 1-charg 2-wave 3-comb
   ISYM   =      3    0-nonsym 1-usesym 2-fastsym
   LCORR  =      T    Harris-Foulkes like correction to forces

   POTIM  = 0.5000    time-step for ionic-motion
   TEIN   =    0.0    initial temperature
   TEBEG  =    0.0;   TEEND  =   0.0 temperature during run
   SMASS  =  -3.00    Nose mass-parameter (am)
   estimated Nose-frequenzy (Omega)   =  0.10E-29 period in steps = 0.13E+47 mass=  -0.194E-26a.u.
   SCALEE = 1.0000    scale energy and forces
   NPACO  =    256;   APACO  = 10.0  distance and # of slots for P.C.
   PSTRESS=    0.0 pullay stress

  Mass of Ions in am
   POMASS =  28.09 12.01
  Ionic Valenz
   ZVAL   =   4.00  4.00
  Atomic Wigner-Seitz radii
   RWIGS  =  -1.00 -1.00
  virtual crystal weights 
   VCA    =   1.00  1.00
   NELECT =     380.0000    total number of electrons
   NUPDOWN=      -1.0000    fix difference up-down

 DOS related values:
   EMIN   =  10.00;   EMAX   =-10.00  energy-range for DOS
   EFERMI =   0.00
   ISMEAR =     0;   SIGMA  =   0.05  broadening in eV -4-tet -1-fermi 0-gaus

 Electronic relaxation 2 (details)
   IALGO  =     38    algorithm
   LDIAG  =      T    sub-space diagonalisation (order eigenvalues)
   LSUBROT=      F    optimize rotation matrix (better conditioning)
   TURBO    =      0    0=normal 1=particle mesh
   IRESTART =      0    0=no restart 2=restart with 2 vectors
   NREBOOT  =      0    no. of reboots
   NMIN     =      0    reboot dimension
   EREF     =   0.00    reference energy to select bands
   IMIX   =      1    mixing-type and parameters
     AMIX     =   0.40;   BMIX     =  1.00
     AMIX_MAG =   1.60;   BMIX_MAG =  1.00
     AMIN     =   0.10
     WC   =   100.;   INIMIX=   1;  MIXPRE=   1;  MAXMIX= -45

 Intra band minimization:
   WEIMIN = 0.0000     energy-eigenvalue tresh-hold
   EBREAK =  0.78E-08  absolut break condition
   DEPER  =   0.30     relativ break condition  

   TIME   =   0.40     timestep for ELM

  volume/ion in A,a.u.               =      10.33        69.73
  Fermi-wavevector in a.u.,A,eV,Ry     =   1.193135  2.254697 19.368849  1.423570
  Thomas-Fermi vector in A             =   2.329156
 
 Write flags
   LWAVE        =      T    write WAVECAR
   LDOWNSAMPLE  =      F    k-point downsampling of WAVECAR
   LCHARG       =      T    write CHGCAR
   LVTOT        =      T    write LOCPOT, total local potential
   LVHAR        =      F    write LOCPOT, Hartree potential only
   LELF         =      F    write electronic localiz. function (ELF)
   LORBIT       =     11    0 simple, 1 ext, 2 COOP (PROOUT), +10 PAW based schemes


 Dipole corrections
   LMONO  =      F    monopole corrections only (constant potential shift)
   LDIPOL =      F    correct potential (dipole corrections)
   IDIPOL =      0    1-x, 2-y, 3-z, 4-all directions 
   EPSILON=  1.0000000 bulk dielectric constant

 Exchange correlation treatment:
   GGA     =    --    GGA type
   LEXCH   =     8    internal setting for exchange type
   LIBXC   =     F    Libxc                    
   VOSKOWN =     0    Vosko Wilk Nusair interpolation
   EXXOEP  =     0    0=HF, 1=EXX-LHF (local Hartree Fock) 2=EXX OEP
   LHFCALC =     T    Hartree Fock is set to
   LSYMGRAD=     F    symmetrize gradient (conserves proper symmetry)
   PRECFOCK=normal    Normal, Fast or Accurate (Low or Medium for compatibility)
   LRHFCALC=     F    long range Hartree Fock
   LRSCOR  =     F    long range correlation only (use DFT for short range part)
   LTHOMAS =     F    Thomas Fermi screening in HF
   LMODELHF=     F    short range full HF, long range fraction AEXX
   LFOCKACE=     T    use Adeptively-Compressed-Exchange operator
   ENCUT4O =  -1.0   cutoff for four orbital integrals eV
   LMAXFOCK=     4    L truncation for augmentation on plane wave grid
   LMAXFOCKAE=  -1    L truncation for all-electron charge restoration on plane wave grid
   NMAXFOCKAE=   1    number of basis functions for all-electron charge restoration
   LFOCKAEDFT=     F  apply the AE augmentation even for DFT
   NKREDX  =     1    reduce k-point grid by
   NKREDY  =     1    reduce k-point grid by
   NKREDZ  =     1    reduce k-point grid by
   SHIFTRED=     F    shift reduced grid of Gamma
   HFKIDENT=     F    idential grid for each k-point
   ODDONLY =     F    use only odd q-grid points
   EVENONLY=     F    use only even q-grid points
   HFALPHA =   -1.0000 decay constant for conv. correction
   MCALPHA =    0.0000 extent of test-charge in conv. correction in multipole expansion
   AEXX    =    0.2500 exact exchange contribution
   HFSCREEN=    0.2000 screening length (either q_TF or 0.3 A-1)
   HFSCREENC=   0.2000 screening length for correlation (either q_TF or 0.3 A-1)
   HFRCUT  =    0.0000 spherical cutoff for potential kernel
   ALDAX   =    0.7500 LDA exchange part
   AGGAX   =    0.7500 GGA exchange part
   ALDAC   =    1.0000 LDA correlation
   AGGAC   =    1.0000 GGA correlation
   ENCUTFOCK=  -1.0 apply spherical cutoff to Coloumb kernel
   NBANDSGWLOW=     1    first orbital included in HF term
   NBLOCK_FOCK=    64    blocking factor in FOCK_ACC

 Linear response parameters
   LEPSILON=     F    determine dielectric tensor
   LRPA    =     F    only Hartree local field effects (RPA)
   LNABLA  =     F    use nabla operator in PAW spheres
   LVEL    =     F    velocity operator in full k-point grid
   CSHIFT  =0.1000    complex shift for real part using Kramers Kronig
   OMEGAMAX=  -1.0    maximum frequency
   DEG_THRESHOLD= 0.2000000E-02 threshold for treating states as degnerate
   RTIME   =   -0.100 relaxation time in fs
  (WPLASMAI=    0.000 imaginary part of plasma frequency in eV, 0.658/RTIME)
   DFIELD  = 0.0000000 0.0000000 0.0000000 field for delta impulse in time
 
  Optional k-point grid parameters
   LKPOINTS_OPT  =     F    use optional k-point grid
   KPOINTS_OPT_MODE=     1    mode for optional k-point grid
 
 Orbital magnetization related:
   ORBITALMAG=     F  switch on orbital magnetization
   LCHIMAG   =     F  perturbation theory with respect to B field
   DQ        =  0.001000  dq finite difference perturbation B field
   LLRAUG    =     F  two centre corrections for induced B field



--------------------------------------------------------------------------------------------------------


 Static calculation
 charge density and potential will be updated during run
 spin polarized calculation
 Variant of blocked Davidson
 Davidson routine will perform the subspace rotation
 perform sub-space diagonalisation
    after iterative eigenvector-optimisation
 Kerker-like  mixing scheme
 using additional bands          130
 reciprocal scheme for non local part
 use partial core corrections
 calculate Harris-corrections to forces 
   (improved forces if not selfconsistent)
 use gradient corrections 
 use of overlap-Matrix (Vanderbilt PP)
 Gauss-broadening in eV      SIGMA  =   0.05


--------------------------------------------------------------------------------------------------------


  energy-cutoff  :      400.00
  volume of cell :      981.61
      direct lattice vectors                 reciprocal lattice vectors
     9.202713966  0.000000000  0.000000000     0.108663597  0.000000000  0.000000000
     0.000000000 10.626379967  0.000000000     0.000000000  0.094105425  0.000000000
     0.000000000  0.000000000 10.037798882     0.000000000  0.000000000  0.099623435

  length of vectors
     9.202713966 10.626379967 10.037798882     0.108663597  0.094105425  0.099623435


 
 old parameters found on file WAVECAR:
  energy-cutoff  :      400.00
  volume of cell :      981.61
      direct lattice vectors                 reciprocal lattice vectors
     9.202713966  0.000000000  0.000000000     0.108663597  0.000000000  0.000000000
     0.000000000 10.626379967  0.000000000     0.000000000  0.094105425  0.000000000
     0.000000000  0.000000000 10.037798882     0.000000000  0.000000000  0.099623435

  length of vectors

 
 k-points in units of 2pi/SCALE and weight: k-points                                
   0.00000000  0.00000000  0.00000000       1.000
 
 k-points in reciprocal lattice and weights: k-points                                
   0.00000000  0.00000000  0.00000000       1.000
 
 position of ions in fractional coordinates (direct lattice) 
   0.16636614  0.08293974  0.43739740
   0.16840375  0.58627281  0.43561107
   0.50000000  0.08258671  0.43766224
   0.83363385  0.08293974  0.43739740
   0.83159623  0.58627281  0.43561107
   0.00000000  0.33350403  0.43720397
   0.00000000  0.83371562  0.43757243
   0.33477647  0.33289386  0.43638076
   0.33295381  0.83211056  0.43710083
   0.66522356  0.33289386  0.43638076
   0.66704622  0.83211056  0.43710083
   0.16629958  0.41636465  0.93830020
   0.16669907  0.91672465  0.93763196
   0.50000000  0.41672219  0.93865029
   0.50000000  0.91696519  0.93848041
   0.83370041  0.41636465  0.93830020
   0.83330091  0.91672465  0.93763196
   0.00000000  0.16657406  0.93758561
   0.00000000  0.66673579  0.93770552
   0.33326461  0.16659652  0.93764382
   0.33345419  0.66661375  0.93885077
   0.66673542  0.16659652  0.93764382
   0.66654584  0.66661375  0.93885077
   0.00000000  0.99991352  0.18755746
   0.00000000  0.50019024  0.18783547
   0.33311867  0.00000374  0.18796715
   0.33283429  0.49940267  0.18976927
   0.66688136  0.00000374  0.18796715
   0.66716574  0.49940267  0.18976927
   0.16646877  0.24967810  0.18775390
   0.16666396  0.75030403  0.18736426
   0.50000000  0.24965077  0.18747116
   0.50000000  0.75040947  0.19042214
   0.83353121  0.24967810  0.18775390
   0.83333602  0.75030403  0.18736426
   0.00000000  0.99997475  0.68772890
   0.00000000  0.50036707  0.68786840
   0.33350409  0.99980007  0.68767366
   0.33454379  0.50107973  0.68881649
   0.66649594  0.99980007  0.68767366
   0.66545624  0.50107973  0.68881649
   0.16663165  0.25014337  0.68753560
   0.16685314  0.75003658  0.68798401
   0.50000000  0.25006012  0.68781948
   0.50000000  0.74898482  0.68858118
   0.83336833  0.25014337  0.68753560
   0.83314685  0.75003658  0.68798401
   0.16635531  0.08322199  0.24965581
   0.16619568  0.58376964  0.24913057
   0.50000000  0.08312089  0.24968068
   0.50000000  0.58268622  0.23597807
   0.83364467  0.08322199  0.24965581
   0.83380430  0.58376964  0.24913057
   0.00000000  0.33347712  0.24943106
   0.00000000  0.83341160  0.24962776
   0.33312702  0.33242612  0.24942416
   0.33270784  0.83365032  0.24978820
   0.66687301  0.33242612  0.24942416
   0.66729219  0.83365032  0.24978820
   0.16591707  0.41639825  0.75041600
   0.16666952  0.91673572  0.74969159
   0.50000000  0.41659295  0.75034508
   0.50000000  0.91714689  0.75082611
   0.83408291  0.41639825  0.75041600
   0.83333047  0.91673572  0.74969159
   0.00000000  0.16663776  0.74954325
   0.00000000  0.66685540  0.74970236
   0.33324330  0.16673923  0.74958576
   0.33316744  0.66686752  0.75085420
   0.66675673  0.16673923  0.74958576
   0.66683259  0.66686752  0.75085420
   0.00000000  0.99998928  0.00012322
   0.00000000  0.50014768  0.00054500
   0.33307751  0.00014796  0.00054722
   0.33271076  0.49956391  0.00056746
   0.66692252  0.00014796  0.00054722
   0.66728927  0.49956391  0.00056746
   0.16651896  0.24970717  0.00039779
   0.16650203  0.75017976  0.00025322
   0.50000000  0.24980237  0.00019135
   0.50000000  0.75040975  0.00107284
   0.83348103  0.24970717  0.00039779
   0.83349795  0.75017976  0.00025322
   0.00000000  0.99988393  0.50039884
   0.00000000  0.50010046  0.50030329
   0.33288221  0.00027298  0.50025515
   0.31796118  0.49287657  0.50576719
   0.66711782  0.00027298  0.50025515
   0.68203885  0.49287657  0.50576719
   0.16604551  0.24945200  0.50018318
   0.16615665  0.75074927  0.50053977
   0.50000000  0.24941867  0.50038395
   0.50000000  0.76317987  0.50619902
   0.83395448  0.24945200  0.50018318
   0.83384334  0.75074927  0.50053977
 
 position of ions in cartesian coordinates  (Angst):
   1.53102000  0.88134919  4.39050713
   1.54977157  6.22995767  4.37257627
   4.60135698  0.87759774  4.39316558
   7.67169383  0.88134919  4.39050713
   7.65294226  6.22995767  4.37257627
   0.00000000  3.54394051  4.38856548
   0.00000000  8.85937899  4.39226406
   3.08085212  3.53745666  4.38030231
   3.06407870  8.84232302  4.38753025
   6.12186212  3.53745666  4.38030231
   6.13863554  8.84232302  4.38753025
   1.53040745  4.42444898  9.41846868
   1.53408387  9.74146445  9.41176100
   4.60135698  4.42824833  9.42198282
   4.60135698  9.74402049  9.42027760
   7.67230638  4.42444898  9.41846868
   7.66862996  9.74146445  9.41176100
   0.00000000  1.77007924  9.41129582
   0.00000000  7.08498786  9.41249942
   3.06693890  1.77031797  9.41188010
   3.06868358  7.08369095  9.42399520
   6.13577535  1.77031797  9.41188010
   6.13403067  7.08369095  9.42399520
   0.00000000 10.62546096  1.88266406
   0.00000000  5.31521152  1.88545465
   3.06559588  0.00003974  1.88677643
   3.06297876  5.30684256  1.90486575
   6.13711837  0.00003974  1.88677643
   6.13973549  5.30684256  1.90486575
   1.53196449  2.65317439  1.88463584
   1.53376078  7.97301569  1.88072476
   4.60135698  2.65288397  1.88179780
   4.60135698  7.97413616  1.91141911
   7.67074933  2.65317439  1.88463584
   7.66895305  7.97301569  1.88072476
   0.00000000 10.62611164  6.90328441
   0.00000000  5.31709059  6.90468463
   3.06914272 10.62425539  6.90272994
   3.07871082  5.32466362  6.91420141
   6.13357152 10.62425539  6.90272994
   6.12400342  5.32466362  6.91420141
   1.53346342  2.65811849  6.90134403
   1.53550171  7.97017372  6.90584510
   4.60135698  2.65723381  6.90419364
   4.60135698  7.95899733  6.91183943
   7.66925041  2.65811849  6.90134403
   7.66721212  7.97017372  6.90584510
   1.53092035  0.88434847  2.50599478
   1.52945133  6.20335803  2.50072252
   4.60135698  0.88327412  2.50624446
   4.60135698  6.19184522  2.36870037
   7.67179348  0.88434847  2.50599478
   7.67326250  6.20335803  2.50072252
   0.00000000  3.54365462  2.50373884
   0.00000000  8.85614837  2.50571329
   3.06567267  3.53248628  2.50366958
   3.06181511  8.85868511  2.50732368
   6.13704157  3.53248628  2.50366958
   6.14089914  8.85868511  2.50732368
   1.52688737  4.42480602  7.53252484
   1.53381188  9.74158214  7.52525342
   4.60135698  4.42687496  7.53181304
   4.60135698  9.74595133  7.53664152
   7.67582646  4.42480602  7.53252484
   7.66890194  9.74158214  7.52525342
   0.00000000  1.77075618  7.52376444
   0.00000000  7.08625890  7.52536146
   3.06674281  1.77183444  7.52419106
   3.06604466  7.08638761  7.53692342
   6.13597143  1.77183444  7.52419106
   6.13666958  7.08638761  7.53692342
   0.00000000 10.62626604  0.00123690
   0.00000000  5.31475924  0.00547055
   3.06521701  0.00157226  0.00549285
   3.06184193  5.30855590  0.00569603
   6.13749723  0.00157226  0.00549285
   6.14087231  5.30855590  0.00569603
   1.53242635  2.65348325  0.00399289
   1.53227056  7.97169521  0.00254176
   4.60135698  2.65449489  0.00192069
   4.60135698  7.97413913  0.01076893
   7.67028747  2.65348325  0.00399289
   7.67044327  7.97169521  0.00254176
   0.00000000 10.62514654  5.02290293
   0.00000000  5.31425750  5.02194385
   3.06341975  0.00290080  5.02146060
   2.92610580  5.23749376  5.07678935
   6.13929450  0.00290080  5.02146060
   6.27660844  5.23749376  5.07678935
   1.52806932  2.65077177  5.02073812
   1.52909209  7.97774702  5.02431759
   4.60135698  2.65041759  5.02275345
   4.60135698  8.10983932  5.08112401
   7.67464451  2.65077177  5.02073812
   7.67362174  7.97774702  5.02431759
 


--------------------------------------------------------------------------------------------------------


 k-point   1 :   0.0000 0.0000 0.0000  plane waves:   17761

 maximum and minimum number of plane-waves per node :     17761    17761

 maximum number of plane-waves:     17761
 maximum index in each direction: 
   IXMAX=   15   IYMAX=   17   IZMAX=   16
   IXMIN=  -15   IYMIN=  -17   IZMIN=  -16


 serial   3D FFT for wavefunctions
 parallel 3D FFT for charge:
    minimum data exchange during FFTs selected (reduces bandwidth)

 
 Radii for the augmentation spheres in the non-local exchange
 for species   1 augmentation radius   1.055 (default was   0.989)
       energy cutoff for augmentation   1600.0
 for species   2 augmentation radius   0.795 (default was   0.699)
       energy cutoff for augmentation   1600.0
 Maximum index for augmentation-charges in exchange          661
  SETUP_FOCK is finished

 total amount of memory used by VASP MPI-rank0    83937. kBytes
=======================================================================

   base      :      30000. kBytes
   nonl-proj :      29334. kBytes
   fftplans  :       1610. kBytes
   grid      :      13084. kBytes
   one-center:        583. kBytes
   HF        :          9. kBytes
   nonlr-proj:       4566. kBytes
   wavefun   :       4751. kBytes
 
     INWAV:  cpu time      0.3199: real time      0.7585
 initial charge density was supplied:
 charge density of overlapping atoms calculated
 number of electron     380.0000000 magnetization      95.0000000
 keeping initial charge density in first step


--------------------------------------------------------------------------------------------------------


 Maximum index for augmentation-charges          314 (set IRDMAX)


--------------------------------------------------------------------------------------------------------


 First call to EWALD:  gamma=   0.178
 Maximum number of real-space cells 3x 3x 3
 Maximum number of reciprocal cells 3x 3x 3

    FEWALD:  cpu time      0.0033: real time      0.0033


--------------------------------------- Iteration      1(   1)  ---------------------------------------


    POTLOK:  cpu time      0.0812: real time      0.0862
    SETDIJ:  cpu time      0.0508: real time      0.0509
     EDDAV:  cpu time     26.2468: real time     26.3241
       DOS:  cpu time      0.0007: real time      0.0007
    CHARGE:  cpu time      0.0339: real time      0.0340
    MIXING:  cpu time      0.0005: real time      0.0005
    --------------------------------------------
      LOOP:  cpu time     26.4138: real time     26.4964

 eigenvalue-minimisations  :  1560
 total energy-change (2. order) :-0.9415235E+03  (-0.2647417E+02)
 number of electron     380.0000151 magnetization     -53.8000002
 augmentation part       -2.5184069 magnetization     -55.5194057

 Free energy of the ion-electron system (eV)
  ---------------------------------------------------
  alpha Z        PSCENC =       531.63094825
  Ewald energy   TEWEN  =    -13418.97889539
  -Hartree energ DENC   =     -1071.21650848
  -exchange      EXHF   =       728.92388130
  -V(xc)+E(xc)   XCENC  =       194.45487732
  PAW double counting   =      3331.53334424    -2716.05046020
  entropy T*S    EENTRO =        -0.00000000
  eigenvalues    EBANDS =      -245.00785845
  atomic energy  EATOM  =     11723.18718505
  Solvation  Ediel_sol  =         0.00000000
  ---------------------------------------------------
  free energy    TOTEN  =      -941.52348637 eV

  energy without entropy =     -941.52348637  energy(sigma->0) =     -941.52348637
  exchange ACFDT corr.  =         0.00000000  see jH, gK, PRB 81, 115126


--------------------------------------------------------------------------------------------------------




--------------------------------------- Iteration      1(   2)  ---------------------------------------


    POTLOK:  cpu time      0.0802: real time      0.0923
    SETDIJ:  cpu time      0.0505: real time      0.0505
     EDDAV:  cpu time     25.9295: real time     25.9885
       DOS:  cpu time      0.0003: real time      0.0003
    CHARGE:  cpu time      0.0326: real time      0.0326
    MIXING:  cpu time      0.0004: real time      0.0004
    --------------------------------------------
      LOOP:  cpu time     26.0934: real time     26.1646

 eigenvalue-minimisations  :  1400
 total energy-change (2. order) : 0.7529353E+02  (-0.8480223E+01)
 number of electron     380.0000217 magnetization      35.4799997
 augmentation part       -3.8100608 magnetization      33.6174216

 Free energy of the ion-electron system (eV)
  ---------------------------------------------------
  alpha Z        PSCENC =       531.63094825
  Ewald energy   TEWEN  =    -13418.97889539
  -Hartree energ DENC   =     -1421.80803904
  -exchange      EXHF   =       777.83653060
  -V(xc)+E(xc)   XCENC  =       213.00646498
  PAW double counting   =      4214.48784329    -3604.00067030
  entropy T*S    EENTRO =        -0.00000000
  eigenvalues    EBANDS =       118.40868058
  atomic energy  EATOM  =     11723.18718505
  Solvation  Ediel_sol  =         0.00000000
  ---------------------------------------------------
  free energy    TOTEN  =      -866.22995198 eV

  energy without entropy =     -866.22995198  energy(sigma->0) =     -866.22995198
  exchange ACFDT corr.  =         0.00000000  see jH, gK, PRB 81, 115126


--------------------------------------------------------------------------------------------------------




--------------------------------------- Iteration      1(   3)  ---------------------------------------


    POTLOK:  cpu time      0.0778: real time      0.0794
    SETDIJ:  cpu time      0.0513: real time      0.0513
     EDDAV:  cpu time     26.0165: real time     26.0801
       DOS:  cpu time      0.0003: real time      0.0003
    CHARGE:  cpu time      0.0330: real time      0.0330
    MIXING:  cpu time      0.0004: real time      0.0004
    --------------------------------------------
      LOOP:  cpu time     26.1792: real time     26.2445

 eigenvalue-minimisations  :  1440
 total energy-change (2. order) : 0.1740782E+01  (-0.6397323E+01)
 number of electron     380.0000235 magnetization     -18.0880009
 augmentation part       -5.0368276 magnetization     -19.9518656

 Free energy of the ion-electron system (eV)
  ---------------------------------------------------
  alpha Z        PSCENC =       531.63094825
  Ewald energy   TEWEN  =    -13418.97889539
  -Hartree energ DENC   =     -1586.53872754
  -exchange      EXHF   =       755.23119129
  -V(xc)+E(xc)   XCENC  =       222.62906007
  PAW double counting   =      4647.86656309    -4039.63899711
  entropy T*S    EENTRO =        -0.00000000
  eigenvalues    EBANDS =       300.12250268
  atomic energy  EATOM  =     11723.18718505
  Solvation  Ediel_sol  =         0.00000000
  ---------------------------------------------------
  free energy    TOTEN  =      -864.48916961 eV

  energy without entropy =     -864.48916961  energy(sigma->0) =     -864.48916961
  exchange ACFDT corr.  =         0.00000000  see jH, gK, PRB 81, 115126


--------------------------------------------------------------------------------------------------------




--------------------------------------- Iteration      1(   4)  ---------------------------------------


    POTLOK:  cpu time      0.0781: real time      0.0886
    SETDIJ:  cpu time      0.0500: real time      0.0501
     EDDAV:  cpu time     26.6828: real time     26.7500
       DOS:  cpu time      0.0002: real time      0.0002
    CHARGE:  cpu time      0.0321: real time      0.0322
    MIXING:  cpu time      0.0004: real time      0.0004
    --------------------------------------------
      LOOP:  cpu time     26.8437: real time     26.9215

 eigenvalue-minimisations  :  1560
 total energy-change (2. order) :-0.3401246E+01  (-0.6689507E+00)
 number of electron     380.0000241 magnetization      14.0527998
 augmentation part       -5.3557761 magnetization      12.1482201

 Free energy of the ion-electron system (eV)
  ---------------------------------------------------
  alpha Z        PSCENC =       531.63094825
  Ewald energy   TEWEN  =    -13418.97889539
  -Hartree energ DENC   =     -1611.01836747
  -exchange      EXHF   =       736.05804066
  -V(xc)+E(xc)   XCENC  =       224.21918033
  PAW double counting   =      4762.03822589    -4154.65745678
  entropy T*S    EENTRO =        -0.00000000
  eigenvalues    EBANDS =       339.63072416
  atomic energy  EATOM  =     11723.18718505
  Solvation  Ediel_sol  =         0.00000000
  ---------------------------------------------------
  free energy    TOTEN  =      -867.89041530 eV

  energy without entropy =     -867.89041530  energy(sigma->0) =     -867.89041530
  exchange ACFDT corr.  =         0.00000000  see jH, gK, PRB 81, 115126


--------------------------------------------------------------------------------------------------------




--------------------------------------- Iteration      1(   5)  ---------------------------------------


    POTLOK:  cpu time      0.0775: real time      0.0785
    SETDIJ:  cpu time      0.0507: real time      0.0508
     EDDAV:  cpu time     26.8439: real time     26.9186
       DOS:  cpu time      0.0002: real time      0.0002
    CHARGE:  cpu time      0.0319: real time      0.0319
    MIXING:  cpu time      0.0004: real time      0.0004
    --------------------------------------------
      LOOP:  cpu time     27.0047: real time     27.0805

 eigenvalue-minimisations  :  1520
 total energy-change (2. order) :-0.2237019E+00  (-0.9308642E-01)
 number of electron     380.0000246 magnetization      -5.2316809
 augmentation part       -5.3038781 magnetization      -7.1319178

 Free energy of the ion-electron system (eV)
  ---------------------------------------------------
  alpha Z        PSCENC =       531.63094825
  Ewald energy   TEWEN  =    -13418.97889539
  -Hartree energ DENC   =     -1604.88075546
  -exchange      EXHF   =       731.02513358
  -V(xc)+E(xc)   XCENC  =       224.26870256
  PAW double counting   =      4791.79795536    -4184.83238564
  entropy T*S    EENTRO =        -0.00000000
  eigenvalues    EBANDS =       338.66799449
  atomic energy  EATOM  =     11723.18718505
  Solvation  Ediel_sol  =         0.00000000
  ---------------------------------------------------
  free energy    TOTEN  =      -868.11411720 eV

  energy without entropy =     -868.11411720  energy(sigma->0) =     -868.11411720
  exchange ACFDT corr.  =         0.00000000  see jH, gK, PRB 81, 115126


--------------------------------------------------------------------------------------------------------




--------------------------------------- Iteration      1(   6)  ---------------------------------------


    POTLOK:  cpu time      0.0780: real time      0.0892
    SETDIJ:  cpu time      0.0503: real time      0.0504
     EDDAV:  cpu time     26.8071: real time     26.8821
       DOS:  cpu time      0.0002: real time      0.0002
    CHARGE:  cpu time      0.0316: real time      0.0316
    MIXING:  cpu time      0.0004: real time      0.0004
    --------------------------------------------
      LOOP:  cpu time     26.9676: real time     27.0540

 eigenvalue-minimisations  :  1520
 total energy-change (2. order) :-0.1204945E+00  (-0.4835640E-01)
 number of electron     380.0000250 magnetization       6.3390077
 augmentation part       -5.2147664 magnetization       4.4379724

 Free energy of the ion-electron system (eV)
  ---------------------------------------------------
  alpha Z        PSCENC =       531.63094825
  Ewald energy   TEWEN  =    -13418.97889539
  -Hartree energ DENC   =     -1603.33911991
  -exchange      EXHF   =       731.20842637
  -V(xc)+E(xc)   XCENC  =       224.35189865
  PAW double counting   =      4813.00488944    -4206.27979524
  entropy T*S    EENTRO =        -0.00000000
  eigenvalues    EBANDS =       336.97985113
  atomic energy  EATOM  =     11723.18718505
  Solvation  Ediel_sol  =         0.00000000
  ---------------------------------------------------
  free energy    TOTEN  =      -868.23461165 eV

  energy without entropy =     -868.23461165  energy(sigma->0) =     -868.23461165
  exchange ACFDT corr.  =         0.00000000  see jH, gK, PRB 81, 115126


--------------------------------------------------------------------------------------------------------




--------------------------------------- Iteration      1(   7)  ---------------------------------------


    POTLOK:  cpu time      0.0774: real time      0.0786
    SETDIJ:  cpu time      0.0506: real time      0.0507
     EDDAV:  cpu time     26.6764: real time     26.7325
       DOS:  cpu time      0.0002: real time      0.0002
    CHARGE:  cpu time      0.0318: real time      0.0319
    MIXING:  cpu time      0.0004: real time      0.0004
    --------------------------------------------
      LOOP:  cpu time     26.8369: real time     26.8943

 eigenvalue-minimisations  :  1480
 total energy-change (2. order) :-0.8268735E-01  (-0.1274092E-01)
 number of electron     380.0000253 magnetization      -0.6034056
 augmentation part       -5.1801842 magnetization      -2.5060376

 Free energy of the ion-electron system (eV)
  ---------------------------------------------------
  alpha Z        PSCENC =       531.63094825
  Ewald energy   TEWEN  =    -13418.97889539
  -Hartree energ DENC   =     -1606.74612049
  -exchange      EXHF   =       731.92886061
  -V(xc)+E(xc)   XCENC  =       224.77808694
  PAW double counting   =      4832.55158259    -4225.96486026
  entropy T*S    EENTRO =        -0.00000000
  eigenvalues    EBANDS =       339.29591370
  atomic energy  EATOM  =     11723.18718505
  Solvation  Ediel_sol  =         0.00000000
  ---------------------------------------------------
  free energy    TOTEN  =      -868.31729900 eV

  energy without entropy =     -868.31729900  energy(sigma->0) =     -868.31729900
  exchange ACFDT corr.  =         0.00000000  see jH, gK, PRB 81, 115126


--------------------------------------------------------------------------------------------------------




--------------------------------------- Iteration      1(   8)  ---------------------------------------


    POTLOK:  cpu time      0.0807: real time      0.0940
    SETDIJ:  cpu time      0.0505: real time      0.0506
     EDDAV:  cpu time     26.6879: real time     26.7605
       DOS:  cpu time      0.0002: real time      0.0002
    CHARGE:  cpu time      0.0323: real time      0.0323
    MIXING:  cpu time      0.0005: real time      0.0004
    --------------------------------------------
      LOOP:  cpu time     26.8522: real time     26.9381

 eigenvalue-minimisations  :  1440
 total energy-change (2. order) :-0.2674184E-01  (-0.3062727E-02)
 number of electron     380.0000254 magnetization       3.5620425
 augmentation part       -5.1752033 magnetization       1.6595169

 Free energy of the ion-electron system (eV)
  ---------------------------------------------------
  alpha Z        PSCENC =       531.63094825
  Ewald energy   TEWEN  =    -13418.97889539
  -Hartree energ DENC   =     -1610.43330591
  -exchange      EXHF   =       732.14113007
  -V(xc)+E(xc)   XCENC  =       225.09233733
  PAW double counting   =      4846.33067932    -4239.82652819
  entropy T*S    EENTRO =        -0.00000000
  eigenvalues    EBANDS =       342.51240865
  atomic energy  EATOM  =     11723.18718505
  Solvation  Ediel_sol  =         0.00000000
  ---------------------------------------------------
  free energy    TOTEN  =      -868.34404083 eV

  energy without entropy =     -868.34404083  energy(sigma->0) =     -868.34404083
  exchange ACFDT corr.  =         0.00000000  see jH, gK, PRB 81, 115126


--------------------------------------------------------------------------------------------------------




--------------------------------------- Iteration      1(   9)  ---------------------------------------


    POTLOK:  cpu time      0.0776: real time      0.0791
    SETDIJ:  cpu time      0.0506: real time      0.0506
     EDDAV:  cpu time     26.6187: real time     26.6799
       DOS:  cpu time      0.0002: real time      0.0002
    CHARGE:  cpu time      0.0352: real time      0.0353
    MIXING:  cpu time      0.0004: real time      0.0004
    --------------------------------------------
      LOOP:  cpu time     26.7827: real time     26.8454

 eigenvalue-minimisations  :  1440
 total energy-change (2. order) :-0.1051915E-01  (-0.1077139E-02)
 number of electron     380.0000255 magnetization       1.0627736
 augmentation part       -5.1785485 magnetization      -0.8393910

 Free energy of the ion-electron system (eV)
  ---------------------------------------------------
  alpha Z        PSCENC =       531.63094825
  Ewald energy   TEWEN  =    -13418.97889539
  -Hartree energ DENC   =     -1612.74096458
  -exchange      EXHF   =       732.07476381
  -V(xc)+E(xc)   XCENC  =       225.32430188
  PAW double counting   =      4854.21394937    -4247.75525906
  entropy T*S    EENTRO =        -0.00000000
  eigenvalues    EBANDS =       344.68941068
  atomic energy  EATOM  =     11723.18718505
  Solvation  Ediel_sol  =         0.00000000
  ---------------------------------------------------
  free energy    TOTEN  =      -868.35455999 eV

  energy without entropy =     -868.35455999  energy(sigma->0) =     -868.35455999
  exchange ACFDT corr.  =         0.00000000  see jH, gK, PRB 81, 115126


--------------------------------------------------------------------------------------------------------




--------------------------------------- Iteration      1(  10)  ---------------------------------------


    POTLOK:  cpu time      0.0780: real time      0.0893
    SETDIJ:  cpu time      0.0519: real time      0.0519
     EDDAV:  cpu time     26.6150: real time     26.6892
       DOS:  cpu time      0.0002: real time      0.0002
    CHARGE:  cpu time      0.0316: real time      0.0317
    MIXING:  cpu time      0.0004: real time      0.0004
    --------------------------------------------
      LOOP:  cpu time     26.7771: real time     26.8627

 eigenvalue-minimisations  :  1440
 total energy-change (2. order) :-0.4021104E-02  (-0.3914556E-03)
 number of electron     380.0000256 magnetization       2.5623349
 augmentation part       -5.1813717 magnetization       0.6601643

 Free energy of the ion-electron system (eV)
  ---------------------------------------------------
  alpha Z        PSCENC =       531.63094825
  Ewald energy   TEWEN  =    -13418.97889539
  -Hartree energ DENC   =     -1613.88733805
  -exchange      EXHF   =       731.97546994
  -V(xc)+E(xc)   XCENC  =       225.43116605
  PAW double counting   =      4858.20601541    -4251.77530014
  entropy T*S    EENTRO =        -0.00000000
  eigenvalues    EBANDS =       345.85216778
  atomic energy  EATOM  =     11723.18718505
  Solvation  Ediel_sol  =         0.00000000
  ---------------------------------------------------
  free energy    TOTEN  =      -868.35858109 eV

  energy without entropy =     -868.35858109  energy(sigma->0) =     -868.35858109
  exchange ACFDT corr.  =         0.00000000  see jH, gK, PRB 81, 115126


--------------------------------------------------------------------------------------------------------




--------------------------------------- Iteration      1(  11)  ---------------------------------------


    POTLOK:  cpu time      0.0799: real time      0.0828
    SETDIJ:  cpu time      0.0506: real time      0.0506
     EDDAV:  cpu time     26.7014: real time     26.7575
       DOS:  cpu time      0.0002: real time      0.0002
    CHARGE:  cpu time      0.0322: real time      0.0322
    MIXING:  cpu time      0.0004: real time      0.0004
    --------------------------------------------
      LOOP:  cpu time     26.8647: real time     26.9237

 eigenvalue-minimisations  :  1480
 total energy-change (2. order) :-0.1622982E-02  (-0.1354274E-03)
 number of electron     380.0000256 magnetization       1.6625981
 augmentation part       -5.1825006 magnetization      -0.2395371

 Free energy of the ion-electron system (eV)
  ---------------------------------------------------
  alpha Z        PSCENC =       531.63094825
  Ewald energy   TEWEN  =    -13418.97889539
  -Hartree energ DENC   =     -1614.41189910
  -exchange      EXHF   =       731.91604469
  -V(xc)+E(xc)   XCENC  =       225.49730703
  PAW double counting   =      4860.13660001    -4253.72068361
  entropy T*S    EENTRO =        -0.00000000
  eigenvalues    EBANDS =       346.38318901
  atomic energy  EATOM  =     11723.18718505
  Solvation  Ediel_sol  =         0.00000000
  ---------------------------------------------------
  free energy    TOTEN  =      -868.36020407 eV

  energy without entropy =     -868.36020407  energy(sigma->0) =     -868.36020407
  exchange ACFDT corr.  =         0.00000000  see jH, gK, PRB 81, 115126


--------------------------------------------------------------------------------------------------------




--------------------------------------- Iteration      1(  12)  ---------------------------------------


    POTLOK:  cpu time      0.0774: real time      0.0862
    SETDIJ:  cpu time      0.0505: real time      0.0506
     EDDAV:  cpu time     26.7598: real time     26.8547
       DOS:  cpu time      0.0002: real time      0.0002
    CHARGE:  cpu time      0.0314: real time      0.0316
    MIXING:  cpu time      0.0004: real time      0.0004
    --------------------------------------------
      LOOP:  cpu time     26.9198: real time     27.0237

 eigenvalue-minimisations  :  1520
 total energy-change (2. order) :-0.5877387E-03  (-0.4897960E-04)
 number of electron     380.0000256 magnetization       2.2024402
 augmentation part       -5.1826707 magnetization       0.3002533

 Free energy of the ion-electron system (eV)
  ---------------------------------------------------
  alpha Z        PSCENC =       531.63094825
  Ewald energy   TEWEN  =    -13418.97889539
  -Hartree energ DENC   =     -1614.68458907
  -exchange      EXHF   =       731.89415442
  -V(xc)+E(xc)   XCENC  =       225.52732402
  PAW double counting   =      4861.12423134    -4254.71854095
  entropy T*S    EENTRO =        -0.00000000
  eigenvalues    EBANDS =       346.65739052
  atomic energy  EATOM  =     11723.18718505
  Solvation  Ediel_sol  =         0.00000000
  ---------------------------------------------------
  free energy    TOTEN  =      -868.36079181 eV

  energy without entropy =     -868.36079181  energy(sigma->0) =     -868.36079181
  exchange ACFDT corr.  =         0.00000000  see jH, gK, PRB 81, 115126


--------------------------------------------------------------------------------------------------------




--------------------------------------- Iteration      1(  13)  ---------------------------------------


    POTLOK:  cpu time      0.0769: real time      0.0791
    SETDIJ:  cpu time      0.0509: real time      0.0510
     EDDAV:  cpu time     26.7515: real time     26.8436
       DOS:  cpu time      0.0002: real time      0.0002
    CHARGE:  cpu time      0.0316: real time      0.0318
    MIXING:  cpu time      0.0004: real time      0.0004
    --------------------------------------------
      LOOP:  cpu time     26.9116: real time     27.0061

 eigenvalue-minimisations  :  1520
 total energy-change (2. order) :-0.2355961E-03  (-0.1990639E-04)
 number of electron     380.0000257 magnetization       1.8785350
 augmentation part       -5.1826426 magnetization      -0.0236268

 Free energy of the ion-electron system (eV)
  ---------------------------------------------------
  alpha Z        PSCENC =       531.63094825
  Ewald energy   TEWEN  =    -13418.97889539
  -Hartree energ DENC   =     -1614.85352475
  -exchange      EXHF   =       731.88810069
  -V(xc)+E(xc)   XCENC  =       225.54989074
  PAW double counting   =      4861.66767768    -4255.26750786
  entropy T*S    EENTRO =        -0.00000000
  eigenvalues    EBANDS =       346.81509818
  atomic energy  EATOM  =     11723.18718505
  Solvation  Ediel_sol  =         0.00000000
  ---------------------------------------------------
  free energy    TOTEN  =      -868.36102741 eV

  energy without entropy =     -868.36102741  energy(sigma->0) =     -868.36102741
  exchange ACFDT corr.  =         0.00000000  see jH, gK, PRB 81, 115126


--------------------------------------------------------------------------------------------------------




--------------------------------------- Iteration      1(  14)  ---------------------------------------


    POTLOK:  cpu time      0.0788: real time      0.0889
    SETDIJ:  cpu time      0.0508: real time      0.0509
     EDDAV:  cpu time     26.9191: real time     26.9907
       DOS:  cpu time      0.0002: real time      0.0002
    CHARGE:  cpu time      0.0317: real time      0.0318
    MIXING:  cpu time      0.0004: real time      0.0004
    --------------------------------------------
      LOOP:  cpu time     27.0810: real time     27.1628

 eigenvalue-minimisations  :  1560
 total energy-change (2. order) :-0.9257826E-04  (-0.1127402E-04)
 number of electron     380.0000257 magnetization       2.0728781
 augmentation part       -5.1826491 magnetization       0.1707078

 Free energy of the ion-electron system (eV)
  ---------------------------------------------------
[...]
   0.543E+02 -.306E+02 0.207E+02   -.551E+02 0.313E+02 -.209E+02   0.109E+01 -.835E+00 0.314E+00   -.151E-01 0.108E-01 -.693E-02
   -.479E+01 -.578E+01 0.102E+01   0.492E+01 0.594E+01 -.693E+00   0.236E-01 -.534E-01 -.392E+00   0.325E-02 0.662E-03 -.205E-02
   -.121E+02 0.963E+01 0.137E+01   0.121E+02 -.949E+01 -.793E+00   0.112E+00 -.157E+00 -.569E+00   0.543E-02 -.521E-03 -.194E-02
   -.641E-01 -.167E+02 0.186E+01   -.338E-06 0.166E+02 -.132E+01   -.137E-17 0.294E+00 -.541E+00   -.202E-04 0.355E-02 -.252E-02
   0.352E-01 0.641E+02 0.218E+02   0.142E-05 -.658E+02 -.220E+02   0.129E-17 0.194E+01 0.199E+00   0.568E-03 -.117E-01 -.477E-02
   0.483E+01 -.583E+01 0.108E+01   -.492E+01 0.594E+01 -.693E+00   -.236E-01 -.534E-01 -.392E+00   -.308E-02 0.101E-02 -.191E-02
   0.121E+02 0.969E+01 0.134E+01   -.121E+02 -.949E+01 -.793E+00   -.112E+00 -.157E+00 -.569E+00   -.588E-02 -.740E-03 -.206E-02
 -----------------------------------------------------------------------------------------------
   0.498E+00 0.647E+00 0.275E+01   -.391E-13 0.426E-13 -.675E-13   -.208E-15 -.612E+00 -.221E+01   -.883E-03 -.647E-04 -.587E-03
 
 
 POSITION                                       TOTAL-FORCE (eV/Angst)
 -----------------------------------------------------------------------------------
      1.53102      0.88135      4.39051        -0.022779     -0.009457      0.163001
      1.54977      6.22996      4.37258        -0.291792      0.054087      0.050879
      4.60136      0.87760      4.39317        -0.000000     -0.019863      0.124255
      7.67169      0.88135      4.39051         0.022779     -0.009457      0.163001
      7.65294      6.22996      4.37258         0.291792      0.054087      0.050879
      0.00000      3.54394      4.38857         0.000000     -0.115897      0.161669
      0.00000      8.85938      4.39226         0.000000      0.035548      0.108305
      3.08085      3.53746      4.38030        -0.186488     -0.356753      0.170345
      3.06408      8.84232      4.38753        -0.183494      0.134914      0.109541
      6.12186      3.53746      4.38030         0.186488     -0.356753      0.170345
      6.13864      8.84232      4.38753         0.183494      0.134914      0.109541
      1.53041      4.42445      9.41847        -0.020918      0.032058      0.047193
      1.53408      9.74146      9.41176        -0.009315      0.052958      0.089742
      4.60136      4.42825      9.42198        -0.000000      0.030438      0.080290
      4.60136      9.74402      9.42028        -0.000000      0.070217      0.092682
      7.67231      4.42445      9.41847         0.020918      0.032058      0.047193
      7.66863      9.74146      9.41176         0.009315      0.052958      0.089742
      0.00000      1.77008      9.41130        -0.000000      0.035076      0.080981
      0.00000      7.08499      9.41250        -0.000000      0.021484      0.091623
      3.06694      1.77032      9.41188        -0.012649      0.057932      0.084373
      3.06868      7.08369      9.42400        -0.011290      0.035205      0.095801
      6.13578      1.77032      9.41188         0.012649      0.057932      0.084373
      6.13403      7.08369      9.42400         0.011290      0.035205      0.095801
      0.00000     10.62546      1.88266        -0.000000      0.063251     -0.051013
      0.00000      5.31521      1.88545        -0.000000      0.002602     -0.076576
      3.06560      0.00004      1.88678         0.003535      0.103849     -0.054017
      3.06298      5.30684      1.90487        -0.197233     -0.052986     -0.172956
      6.13712      0.00004      1.88678        -0.003535      0.103849     -0.054017
      6.13974      5.30684      1.90487         0.197233     -0.052986     -0.172956
      1.53196      2.65317      1.88464        -0.038822      0.046865     -0.050181
      1.53376      7.97302      1.88072        -0.028759      0.070217     -0.061509
      4.60136      2.65288      1.88180        -0.000000      0.046399     -0.064157
      4.60136      7.97414      1.91142        -0.000000      0.306118     -0.175333
      7.67075      2.65317      1.88464         0.038822      0.046865     -0.050181
      7.66895      7.97302      1.88072         0.028759      0.070217     -0.061509
      0.00000     10.62611      6.90328        -0.000000     -0.028469     -0.038132
      0.00000      5.31709      6.90468         0.000000     -0.123997      0.030774
      3.06914     10.62426      6.90273        -0.022372     -0.019770     -0.017863
      3.07871      5.32466      6.91420        -0.160403     -0.201437      0.242111
      6.13357     10.62426      6.90273         0.022372     -0.019770     -0.017863
      6.12400      5.32466      6.91420         0.160403     -0.201437      0.242111
      1.53346      2.65812      6.90134        -0.014494     -0.060351     -0.035639
      1.53550      7.97017      6.90585        -0.022869     -0.041471      0.001178
      4.60136      2.65723      6.90419        -0.000000     -0.065261     -0.014413
      4.60136      7.95900      6.91184        -0.000000      0.018701      0.250893
      7.66925      2.65812      6.90134         0.014494     -0.060351     -0.035639
      7.66721      7.97017      6.90585         0.022869     -0.041471      0.001178
      1.53092      0.88435      2.50599         0.023842     -0.100969     -0.103722
      1.52945      6.20336      2.50072         0.070572     -0.065390     -0.035164
      4.60136      0.88327      2.50624        -0.000000     -0.099467     -0.090162
      4.60136      6.19185      2.36870        -0.000000     -0.064474     -0.369522
      7.67179      0.88435      2.50599        -0.023842     -0.100969     -0.103722
      7.67326      6.20336      2.50072        -0.070572     -0.065390     -0.035164
      0.00000      3.54365      2.50374        -0.000000     -0.070736     -0.084757
      0.00000      8.85615      2.50571        -0.000000     -0.116933     -0.090650
      3.06567      3.53249      2.50367         0.056435     -0.015910     -0.053943
      3.06182      8.85869      2.50732         0.059779     -0.160194     -0.051449
      6.13704      3.53249      2.50367        -0.056435     -0.015910     -0.053943
      6.14090      8.85869      2.50732        -0.059779     -0.160194     -0.051449
      1.52689      4.42481      7.53252         0.125933      0.172192     -0.094367
      1.53381      9.74158      7.52525         0.017341      0.068896     -0.095733
      4.60136      4.42687      7.53181        -0.000000      0.152714     -0.137314
      4.60136      9.74595      7.53664        -0.000000      0.022835     -0.141732
      7.67583      4.42481      7.53252        -0.125933      0.172192     -0.094367
      7.66890      9.74158      7.52525        -0.017341      0.068896     -0.095733
      0.00000      1.77076      7.52376        -0.000000      0.079142     -0.074066
      0.00000      7.08626      7.52536        -0.000000      0.097640     -0.098607
      3.06674      1.77183      7.52419         0.016471      0.077107     -0.085385
      3.06604      7.08639      7.53692         0.038142      0.083572     -0.149463
      6.13597      1.77183      7.52419        -0.016471      0.077107     -0.085385
      6.13667      7.08639      7.53692        -0.038142      0.083572     -0.149463
      0.00000     10.62627      0.00124        -0.000000     -0.064867      0.033626
      0.00000      5.31476      0.00547         0.000000     -0.043937      0.062114
      3.06522      0.00157      0.00549         0.021394     -0.056038      0.035074
      3.06184      5.30856      0.00570         0.091325      0.013023      0.077468
      6.13750      0.00157      0.00549        -0.021394     -0.056038      0.035074
      6.14087      5.30856      0.00570        -0.091325      0.013023      0.077468
      1.53243      2.65348      0.00399         0.009037     -0.045540      0.052290
      1.53227      7.97170      0.00254         0.021696     -0.052046      0.028361
      4.60136      2.65449      0.00192        -0.000000     -0.035416      0.037696
      4.60136      7.97414      0.01077        -0.000000     -0.136593      0.066078
      7.67029      2.65348      0.00399        -0.009037     -0.045540      0.052290
      7.67044      7.97170      0.00254        -0.021696     -0.052046      0.028361
      0.00000     10.62515      5.02290        -0.000000     -0.009342     -0.031629
      0.00000      5.31426      5.02194        -0.000000      0.000119      0.011083
      3.06342      0.00290      5.02146         0.059329     -0.038341      0.004696
      2.92611      5.23749      5.07679         0.122154     -0.056579      0.073787
      6.13929      0.00290      5.02146        -0.059329     -0.038341      0.004696
      6.27661      5.23749      5.07679        -0.122154     -0.056579      0.073787
      1.52807      2.65077      5.02074         0.142351      0.079223     -0.061320
      1.52909      7.97775      5.02432         0.082488      0.002095     -0.044886
      4.60136      2.65042      5.02275         0.000000      0.138828     -0.034942
      4.60136      8.10984      5.08112        -0.000000      0.372214      0.024446
      7.67464      2.65077      5.02074        -0.142351      0.079223     -0.061320
      7.67362      7.97775      5.02432        -0.082488      0.002095     -0.044886
 -----------------------------------------------------------------------------------
    total drift:                                0.497320     -0.005075      0.028262


--------------------------------------------------------------------------------------------------------



  FREE ENERGIE OF THE ION-ELECTRON SYSTEM (eV)
  ---------------------------------------------------
  free  energy   TOTEN  =      -868.58011729 eV

  energy  without entropy=     -868.58011729  energy(sigma->0) =     -868.58011729
 


--------------------------------------------------------------------------------------------------------


    POTLOK:  cpu time      0.1308: real time      0.1313


--------------------------------------------------------------------------------------------------------


 writing wavefunctions
     LOOP+:  cpu time    984.5155: real time    988.6262
    4ORBIT:  cpu time      0.0000: real time      0.0000



 total charge

# of ion       s       p       d       tot
------------------------------------------
    1        0.709   0.997   0.000   1.706
    2        0.714   1.003   0.000   1.717
    3        0.707   0.994   0.000   1.701
    4        0.709   0.997   0.000   1.706
    5        0.714   1.003   0.000   1.717
    6        0.708   0.995   0.000   1.703
    7        0.708   0.997   0.000   1.705
    8        0.709   1.004   0.000   1.713
    9        0.709   1.005   0.000   1.714
   10        0.709   1.004   0.000   1.713
   11        0.709   1.005   0.000   1.714
   12        0.709   0.997   0.000   1.706
   13        0.708   0.994   0.000   1.702
   14        0.707   0.993   0.000   1.700
   15        0.709   0.995   0.000   1.704
   16        0.709   0.997   0.000   1.706
   17        0.708   0.994   0.000   1.702
   18        0.708   0.995   0.000   1.702
   19        0.707   0.994   0.000   1.701
   20        0.708   0.994   0.000   1.701
   21        0.707   0.994   0.000   1.701
   22        0.708   0.994   0.000   1.701
   23        0.707   0.994   0.000   1.701
   24        0.706   0.995   0.000   1.700
   25        0.706   0.995   0.000   1.702
   26        0.706   0.994   0.000   1.700
   27        0.707   1.004   0.000   1.710
   28        0.706   0.994   0.000   1.700
   29        0.707   1.004   0.000   1.710
   30        0.706   0.995   0.000   1.700
   31        0.706   0.996   0.000   1.701
   32        0.706   0.994   0.000   1.700
   33        0.707   1.001   0.000   1.708
   34        0.706   0.995   0.000   1.700
   35        0.706   0.996   0.000   1.701
   36        0.706   0.993   0.000   1.699
   37        0.706   0.994   0.000   1.701
   38        0.706   0.993   0.000   1.698
   39        0.707   1.002   0.000   1.709
   40        0.706   0.993   0.000   1.698
   41        0.707   1.002   0.000   1.709
   42        0.706   0.993   0.000   1.699
   43        0.705   0.992   0.000   1.698
   44        0.705   0.992   0.000   1.697
   45        0.707   1.004   0.000   1.712
   46        0.706   0.993   0.000   1.699
   47        0.705   0.992   0.000   1.698
   48        0.841   1.737   0.000   2.578
   49        0.842   1.741   0.000   2.583
   50        0.841   1.735   0.000   2.575
   51        0.872   1.624   0.000   2.496
   52        0.841   1.737   0.000   2.578
   53        0.842   1.741   0.000   2.583
   54        0.841   1.735   0.000   2.576
   55        0.841   1.735   0.000   2.576
   56        0.841   1.740   0.000   2.582
   57        0.841   1.740   0.000   2.581
   58        0.841   1.740   0.000   2.582
   59        0.841   1.740   0.000   2.581
   60        0.843   1.724   0.000   2.567
   61        0.840   1.735   0.000   2.575
   62        0.841   1.734   0.000   2.575
   63        0.842   1.727   0.000   2.569
   64        0.843   1.724   0.000   2.567
   65        0.840   1.735   0.000   2.575
   66        0.841   1.733   0.000   2.574
   67        0.841   1.735   0.000   2.576
   68        0.840   1.733   0.000   2.573
   69        0.841   1.737   0.000   2.578
   70        0.840   1.733   0.000   2.573
   71        0.841   1.737   0.000   2.578
   72        0.839   1.736   0.000   2.574
   73        0.839   1.737   0.000   2.576
   74        0.839   1.735   0.000   2.574
   75        0.840   1.726   0.000   2.566
   76        0.839   1.735   0.000   2.574
   77        0.840   1.726   0.000   2.566
   78        0.839   1.736   0.000   2.575
   79        0.839   1.737   0.000   2.576
   80        0.839   1.736   0.000   2.574
   81        0.840   1.724   0.000   2.565
   82        0.839   1.736   0.000   2.575
   83        0.839   1.737   0.000   2.576
   84        0.839   1.739   0.000   2.578
   85        0.850   1.685   0.000   2.534
   86        0.841   1.727   0.000   2.567
   87        0.879   1.596   0.000   2.475
   88        0.841   1.727   0.000   2.567
   89        0.879   1.596   0.000   2.475
   90        0.841   1.723   0.000   2.565
   91        0.840   1.741   0.000   2.582
   92        0.839   1.736   0.000   2.575
   93        0.870   1.625   0.000   2.494
   94        0.841   1.723   0.000   2.565
   95        0.840   1.741   0.000   2.582
--------------------------------------------------
tot         73.730 129.543   0.000 203.272



 magnetization (x)

# of ion       s       p       d       tot
------------------------------------------
    1        0.001   0.003   0.000   0.003
    2       -0.000  -0.000   0.000  -0.001
    3       -0.000  -0.001   0.000  -0.001
    4        0.001   0.003   0.000   0.003
    5       -0.000  -0.000   0.000  -0.001
    6        0.001   0.000   0.000   0.001
    7        0.000  -0.000   0.000  -0.000
    8       -0.000  -0.000   0.000  -0.000
    9       -0.003  -0.008   0.000  -0.011
   10       -0.000  -0.000   0.000  -0.000
   11       -0.003  -0.008   0.000  -0.011
   12        0.001   0.003   0.000   0.004
   13       -0.000  -0.000   0.000  -0.000
   14       -0.000  -0.001   0.000  -0.001
   15        0.001   0.005   0.000   0.006
   16        0.001   0.003   0.000   0.004
   17       -0.000  -0.000   0.000  -0.000
   18       -0.000  -0.000   0.000  -0.000
   19        0.000  -0.000   0.000  -0.000
   20       -0.000  -0.000   0.000  -0.000
   21       -0.000  -0.001   0.000  -0.001
   22       -0.000  -0.000   0.000  -0.000
   23       -0.000  -0.001   0.000  -0.001
   24       -0.000   0.000   0.000  -0.000
   25        0.000  -0.000   0.000  -0.000
   26       -0.000   0.000   0.000  -0.000
   27       -0.003  -0.007   0.000  -0.010
   28       -0.000   0.000   0.000  -0.000
   29       -0.003  -0.007   0.000  -0.010
   30       -0.000  -0.000   0.000  -0.000
   31       -0.000  -0.000   0.000  -0.000
   32       -0.000  -0.000   0.000  -0.000
   33       -0.003  -0.007   0.000  -0.010
   34       -0.000  -0.000   0.000  -0.000
   35       -0.000  -0.000   0.000  -0.000
   36       -0.000   0.000   0.000   0.000
   37        0.000   0.000   0.000   0.001
   38       -0.000  -0.000   0.000  -0.001
   39       -0.000  -0.000   0.000  -0.000
   40       -0.000  -0.000   0.000  -0.001
   41       -0.000  -0.000   0.000  -0.000
   42        0.000   0.000   0.000   0.000
   43       -0.000  -0.000   0.000  -0.000
   44       -0.000   0.000   0.000   0.000
   45       -0.003  -0.007   0.000  -0.010
   46        0.000   0.000   0.000   0.000
   47       -0.000  -0.000   0.000  -0.000
   48       -0.000  -0.000   0.000  -0.000
   49        0.000   0.000   0.000   0.000
   50        0.000   0.000   0.000   0.000
   51        0.030   0.346   0.000   0.376
   52       -0.000  -0.000   0.000  -0.000
   53        0.000   0.000   0.000   0.000
   54       -0.000  -0.000   0.000  -0.000
   55        0.000   0.000   0.000   0.001
   56        0.000   0.001   0.000   0.001
   57        0.000   0.002   0.000   0.002
   58        0.000   0.001   0.000   0.001
   59        0.000   0.002   0.000   0.002
   60        0.000   0.003   0.000   0.003
   61       -0.000  -0.000   0.000  -0.000
   62        0.000   0.001   0.000   0.002
   63        0.003   0.026   0.000   0.029
   64        0.000   0.003   0.000   0.003
   65       -0.000  -0.000   0.000  -0.000
   66       -0.000  -0.000   0.000  -0.000
   67        0.000   0.001   0.000   0.001
   68        0.000   0.001   0.000   0.001
   69        0.000   0.002   0.000   0.002
   70        0.000   0.001   0.000   0.001
   71        0.000   0.002   0.000   0.002
   72        0.000   0.000   0.000   0.000
   73       -0.000  -0.000   0.000  -0.000
   74        0.000   0.002   0.000   0.002
   75        0.003   0.021   0.000   0.024
   76        0.000   0.002   0.000   0.002
   77        0.003   0.021   0.000   0.024
   78       -0.000  -0.000   0.000  -0.000
   79       -0.000  -0.000   0.000  -0.000
   80       -0.000  -0.000   0.000  -0.000
   81        0.003   0.023   0.000   0.026
   82       -0.000  -0.000   0.000  -0.000
   83       -0.000  -0.000   0.000  -0.000
   84       -0.000  -0.001   0.000  -0.001
   85        0.000   0.007   0.000   0.007
   86        0.003   0.023   0.000   0.027
   87        0.004   0.033   0.000   0.037
   88        0.003   0.023   0.000   0.027
   89        0.004   0.033   0.000   0.037
   90        0.000   0.004   0.000   0.004
   91        0.000   0.001   0.000   0.001
   92        0.000   0.002   0.000   0.002
   93        0.029   0.344   0.000   0.373
   94        0.000   0.004   0.000   0.004
   95        0.000   0.001   0.000   0.001
--------------------------------------------------
tot          0.071   0.903   0.000   0.974
 

 total amount of memory used by VASP MPI-rank0   397314. kBytes
=======================================================================

   base      :      30000. kBytes
   nonl-proj :      29334. kBytes
   fftplans  :       1610. kBytes
   grid      :      13084. kBytes
   one-center:        583. kBytes
   HF        :          9. kBytes
   nonlr-proj:      14511. kBytes
   wavefun   :       4751. kBytes
   fock_wrk  :     303432. kBytes
 
  
  
 General timing and accounting informations for this job:
 ========================================================
  
                  Total CPU time used (sec):      996.285
                            User time (sec):      979.762
                          System time (sec):       16.523
                         Elapsed time (sec):     1003.017
  
                   Maximum memory used (kb):     1119700.
                   Average memory used (kb):          N/A
  
                          Minor page faults:      3242530
                          Major page faults:           19
                 Voluntary context switches:        13495
